
     Program PWSCF v.6.4.1 starts on 25Jun2019 at 14:32:34 

     This program is part of the open-source Quantum ESPRESSO suite
     for quantum simulation of materials; please cite
         "P. Giannozzi et al., J. Phys.:Condens. Matter 21 395502 (2009);
         "P. Giannozzi et al., J. Phys.:Condens. Matter 29 465901 (2017);
          URL http://www.quantum-espresso.org", 
     in publications or presentations arising from this work. More details at
     http://www.quantum-espresso.org/quote

     Parallel version (MPI), running on     1 processors

     MPI processes distributed on     1 nodes
     Waiting for input...
     Reading input from standard input

     Current dimensions of program PWSCF are:
     Max number of different atomic species (ntypx) = 10
     Max number of k-points (npk) =  40000
     Max angular momentum in pseudopotentials (lmaxx) =  3
               file Bi.rel-pbe-dn-kjpaw_psl.1.0.0.UPF: wavefunction(s)  6P 6P 5D 5D renormalized
               file Te.rel-pbe-dn-kjpaw_psl.1.0.0.UPF: wavefunction(s)  5S 5P 5P renormalized

     Subspace diagonalization in iterative solution of the eigenvalue problem:
     a serial algorithm will be used

 
     G-vector sticks info
     --------------------
     sticks:   dense  smooth     PW     G-vecs:    dense   smooth      PW
     Sum        1621    1165    343                48569    29545    4711
 


     bravais-lattice index     =            5
     lattice parameter (alat)  =       6.7060  a.u.
     unit-cell volume          =     294.9243 (a.u.)^3
     number of atoms/cell      =            5
     number of atomic types    =            2
     number of electrons       =        78.00
     number of Kohn-Sham states=           78
     kinetic-energy cutoff     =      82.0068  Ry
     charge density cutoff     =     456.1601  Ry
     convergence threshold     =      1.0E-09
     mixing beta               =       0.6000
     number of iterations used =            8  plain     mixing
     Exchange-correlation      = SLA PW PBX PBC ( 1  4  3  4 0 0)
     nstep                     =           50

     Non magnetic calculation with spin-orbit


     celldm(1)=   6.706040  celldm(2)=   0.000000  celldm(3)=   0.000000
     celldm(4)=   0.126010  celldm(5)=   0.000000  celldm(6)=   0.000000

     crystal axes: (cart. coord. in units of alat)
               a(1) = (   0.661056  -0.381661   0.646019 )  
               a(2) = (   0.000000   0.763322   0.646019 )  
               a(3) = (  -0.661056  -0.381661   0.646019 )  

     reciprocal axes: (cart. coord. in units 2 pi/alat)
               b(1) = (  0.756366 -0.436688  0.515981 )  
               b(2) = (  0.000000  0.873376  0.515981 )  
               b(3) = ( -0.756366 -0.436688  0.515981 )  


     PseudoPot. # 1 for Bi read from file:
     ./pseudo/Bi.rel-pbe-dn-kjpaw_psl.1.0.0.UPF
     MD5 check sum: 8aa748805009a86328340afbc50ddab6
     Pseudo is Projector augmented-wave + core cor, Zval = 15.0
     Generated using "atomic" code by A. Dal Corso v.6.4.1
     Shape of augmentation charge: PSQ
     Using radial grid of 1283 points, 10 beta functions with: 
                l(1) =   0
                l(2) =   0
                l(3) =   1
                l(4) =   1
                l(5) =   1
                l(6) =   1
                l(7) =   2
                l(8) =   2
                l(9) =   2
               l(10) =   2
     Q(r) pseudized with 0 coefficients 


     PseudoPot. # 2 for Te read from file:
     ./pseudo/Te.rel-pbe-dn-kjpaw_psl.1.0.0.UPF
     MD5 check sum: 0860a93adbb982424ca3f147cee07fb4
     Pseudo is Projector augmented-wave + core cor, Zval = 16.0
     Generated using "atomic" code by A. Dal Corso v.6.4.1
     Shape of augmentation charge: PSQ
     Using radial grid of 1245 points, 10 beta functions with: 
                l(1) =   0
                l(2) =   0
                l(3) =   1
                l(4) =   1
                l(5) =   1
                l(6) =   1
                l(7) =   2
                l(8) =   2
                l(9) =   2
               l(10) =   2
     Q(r) pseudized with 0 coefficients 


     atomic species   valence    mass     pseudopotential
        Bi            15.00   208.98040     Bi( 1.00)
        Te            16.00   127.60000     Te( 1.00)

     12 Sym. Ops., with inversion, found



   Cartesian axes

     site n.     atom                  positions (alat units)
         1           Bi  tau(   1) = (   0.0000000   0.0000000  -0.7515974  )
         2           Bi  tau(   2) = (   0.0000000   0.0000000   0.7515974  )
         3           Te  tau(   3) = (   0.0000000   0.0000000   0.0000000  )
         4           Te  tau(   4) = (   0.0000000   0.0000000   0.3951424  )
         5           Te  tau(   5) = (   0.0000000   0.0000000  -0.3951424  )

     number of k points=    32  Methfessel-Paxton smearing, width (Ry)=  0.0200
                       cart. coord. in units 2pi/alat
        k(    1) = (   0.0000000   0.0000000   0.0000000), wk =   0.0046296
        k(    2) = (  -0.1260609  -0.0727813   0.0859968), wk =   0.0277778
        k(    3) = (  -0.2521219  -0.1455626   0.1719937), wk =   0.0277778
        k(    4) = (   0.3781828   0.2183439  -0.2579905), wk =   0.0138889
        k(    5) = (  -0.1260609   0.0727813   0.1719937), wk =   0.0277778
        k(    6) = (  -0.2521219   0.0000000   0.2579905), wk =   0.0555556
        k(    7) = (   0.3781828   0.3639066  -0.1719937), wk =   0.0555556
        k(    8) = (   0.2521219   0.2911253  -0.0859968), wk =   0.0555556
        k(    9) = (   0.1260609   0.2183439   0.0000000), wk =   0.0277778
        k(   10) = (  -0.2521219   0.1455626   0.3439874), wk =   0.0277778
        k(   11) = (   0.3781828   0.5094692  -0.0859968), wk =   0.0555556
        k(   12) = (   0.2521219   0.4366879   0.0000000), wk =   0.0277778
        k(   13) = (   0.3781828  -0.2183439  -0.5159810), wk =   0.0138889
        k(   14) = (   0.0000000   0.0000000   0.2579905), wk =   0.0092593
        k(   15) = (  -0.1260609  -0.0727813   0.3439874), wk =   0.0277778
        k(   16) = (   0.5042437   0.2911253  -0.0859968), wk =   0.0277778
        k(   17) = (   0.3781828   0.2183439   0.0000000), wk =   0.0277778
        k(   18) = (   0.2521219   0.1455626   0.0859968), wk =   0.0277778
        k(   19) = (  -0.1260609   0.0727813   0.4299842), wk =   0.0277778
        k(   20) = (   0.5042437   0.4366879   0.0000000), wk =   0.0555556
        k(   21) = (   0.3781828   0.3639066   0.0859968), wk =   0.0555556
        k(   22) = (   0.2521219   0.2911253   0.1719937), wk =   0.0555556
        k(   23) = (   0.5042437  -0.2911253  -0.4299842), wk =   0.0277778
        k(   24) = (   0.3781828  -0.3639066  -0.3439874), wk =   0.0555556
        k(   25) = (   0.2521219  -0.4366879  -0.2579905), wk =   0.0277778
        k(   26) = (   0.3781828  -0.2183439  -0.2579905), wk =   0.0277778
        k(   27) = (   0.0000000   0.0000000   0.5159810), wk =   0.0092593
        k(   28) = (   0.6303047   0.3639066   0.0859968), wk =   0.0277778
        k(   29) = (   0.5042437   0.2911253   0.1719937), wk =   0.0277778
        k(   30) = (   0.6303047  -0.3639066  -0.3439874), wk =   0.0277778
        k(   31) = (   0.5042437  -0.4366879  -0.2579905), wk =   0.0277778
        k(   32) = (   0.0000000   0.0000000  -0.7739716), wk =   0.0046296

     Dense  grid:    48569 G-vectors     FFT dimensions: (  45,  45,  45)

     Smooth grid:    29545 G-vectors     FFT dimensions: (  40,  40,  40)

     Estimated max dynamical RAM per process >     867.42 MB

     Initial potential from superposition of free atoms

     starting charge   77.99763, renormalised to   78.00000
     Starting wfcs are   90 randomized atomic wfcs
     Checking if some PAW data can be deallocated... 

     total cpu time spent up to now is       24.0 secs

     Self-consistent Calculation

     iteration #  1     ecut=    82.01 Ry     beta= 0.60
     Davidson diagonalization with overlap
