
     Program PWSCF v.6.4.1 starts on  3Jun2019 at 13: 9:56 

     This program is part of the open-source Quantum ESPRESSO suite
     for quantum simulation of materials; please cite
         "P. Giannozzi et al., J. Phys.:Condens. Matter 21 395502 (2009);
         "P. Giannozzi et al., J. Phys.:Condens. Matter 29 465901 (2017);
          URL http://www.quantum-espresso.org", 
     in publications or presentations arising from this work. More details at
     http://www.quantum-espresso.org/quote

     Parallel version (MPI), running on     4 processors

     MPI processes distributed on     1 nodes
     R & G space division:  proc/nbgrp/npool/nimage =       4
     Waiting for input...
     Reading input from standard input

     Current dimensions of program PWSCF are:
     Max number of different atomic species (ntypx) = 10
     Max number of k-points (npk) =  40000
     Max angular momentum in pseudopotentials (lmaxx) =  3

     Subspace diagonalization in iterative solution of the eigenvalue problem:
     a serial algorithm will be used

     Message from routine setup:
     DEPRECATED: symmetry with ibrav=0, use correct ibrav instead
 
     Parallelization info
     --------------------
     sticks:   dense  smooth     PW     G-vecs:    dense   smooth      PW
     Min          86      86     30                 1039     1039     208
     Max          88      88     31                 1040     1040     209
     Sum         349     349    121                 4159     4159     833
 


     bravais-lattice index     =            0
     lattice parameter (alat)  =       7.0103  a.u.
     unit-cell volume          =     245.3705 (a.u.)^3
     number of atoms/cell      =            2
     number of atomic types    =            1
     number of electrons       =        10.00
     number of Kohn-Sham states=            9
     kinetic-energy cutoff     =      25.0000  Ry
     charge density cutoff     =     100.0000  Ry
     convergence threshold     =      1.0E-07
     mixing beta               =       0.7000
     number of iterations used =            8  plain     mixing
     Exchange-correlation      = SLA PZ NOGX NOGC ( 1  1  0  0 0 0)
     nstep                     =           50


     celldm(1)=   7.010336  celldm(2)=   0.000000  celldm(3)=   0.000000
     celldm(4)=   0.000000  celldm(5)=   0.000000  celldm(6)=   0.000000

     crystal axes: (cart. coord. in units of alat)
               a(1) = (   0.580130   0.000000   0.814524 )  
               a(2) = (  -0.290065   0.502407   0.814524 )  
               a(3) = (  -0.290065  -0.502407   0.814524 )  

     reciprocal axes: (cart. coord. in units 2 pi/alat)
               b(1) = (  1.149169  0.000000  0.409237 )  
               b(2) = ( -0.574584  0.995209  0.409237 )  
               b(3) = ( -0.574584 -0.995209  0.409237 )  


     PseudoPot. # 1 for As read from file:
     /home/funashima/espresso/pseudo/As.pz-bhs.UPF
     MD5 check sum: 2c53d8691f3db84e0fbdf898b12bc293
     Pseudo is Norm-conserving, Zval =  5.0
     Generated by new atomic code, or converted to UPF format
     Using radial grid of  525 points,  2 beta functions with: 
                l(1) =   0
                l(2) =   1

     atomic species   valence    mass     pseudopotential
        As             5.00    74.90000     As( 1.00)

     12 Sym. Ops., with inversion, found



   Cartesian axes

     site n.     atom                  positions (alat units)
         1           As  tau(   1) = (   0.0000001   0.0000000   0.7086605  )
         2           As  tau(   2) = (  -0.0000001   0.0000000  -0.7086605  )

     number of k points=    10  Methfessel-Paxton smearing, width (Ry)=  0.0050
                       cart. coord. in units 2pi/alat
        k(    1) = (   0.0000000   0.0000000   0.1534638), wk =   0.0625000
        k(    2) = (  -0.1436461  -0.2488023   0.2557731), wk =   0.1875000
        k(    3) = (   0.2872922   0.4976046  -0.0511547), wk =   0.1875000
        k(    4) = (   0.1436461   0.2488023   0.0511546), wk =   0.1875000
        k(    5) = (  -0.2872922   0.0000000   0.3580823), wk =   0.1875000
        k(    6) = (   0.1436461   0.7464070   0.0511546), wk =   0.3750000
        k(    7) = (   0.0000000   0.4976046   0.1534638), wk =   0.3750000
        k(    8) = (   0.5745844   0.0000000  -0.2557731), wk =   0.1875000
        k(    9) = (   0.0000000   0.0000000   0.4603915), wk =   0.0625000
        k(   10) = (   0.4309383   0.7464070   0.1534638), wk =   0.1875000

     Dense  grid:     4159 G-vectors     FFT dimensions: (  24,  24,  24)

     Estimated max dynamical RAM per process >       1.24 MB

     Estimated total dynamical RAM >       4.94 MB

     Initial potential from superposition of free atoms

     starting charge    9.99960, renormalised to   10.00000
     Starting wfcs are    8 randomized atomic wfcs +    1 random wfcs

     total cpu time spent up to now is        0.1 secs

     Self-consistent Calculation

     iteration #  1     ecut=    25.00 Ry     beta= 0.70
     Davidson diagonalization with overlap
     ethr =  1.00E-02,  avg # of iterations =  4.3

     Threshold (ethr) on eigenvalues was too large:
     Diagonalizing with lowered threshold

     Davidson diagonalization with overlap
     ethr =  1.54E-04,  avg # of iterations =  1.7

     total cpu time spent up to now is        0.2 secs

     total energy              =     -25.43995050 Ry
     Harris-Foulkes estimate   =     -25.44370884 Ry
     estimated scf accuracy    <       0.01556416 Ry

     iteration #  2     ecut=    25.00 Ry     beta= 0.70
     Davidson diagonalization with overlap
     ethr =  1.56E-04,  avg # of iterations =  1.0

     total cpu time spent up to now is        0.2 secs

     total energy              =     -25.44008086 Ry
     Harris-Foulkes estimate   =     -25.44026295 Ry
     estimated scf accuracy    <       0.00088627 Ry

     iteration #  3     ecut=    25.00 Ry     beta= 0.70
     Davidson diagonalization with overlap
     ethr =  8.86E-06,  avg # of iterations =  2.6

     total cpu time spent up to now is        0.3 secs

     total energy              =     -25.44011455 Ry
     Harris-Foulkes estimate   =     -25.44011593 Ry
     estimated scf accuracy    <       0.00000522 Ry

     iteration #  4     ecut=    25.00 Ry     beta= 0.70
     Davidson diagonalization with overlap
     ethr =  5.22E-08,  avg # of iterations =  3.1

     total cpu time spent up to now is        0.3 secs

     total energy              =     -25.44012214 Ry
     Harris-Foulkes estimate   =     -25.44012246 Ry
     estimated scf accuracy    <       0.00000069 Ry

     iteration #  5     ecut=    25.00 Ry     beta= 0.70
     Davidson diagonalization with overlap
     ethr =  6.89E-09,  avg # of iterations =  1.3

     total cpu time spent up to now is        0.3 secs

     End of self-consistent calculation

          k = 0.0000 0.0000 0.1535 (   531 PWs)   bands (ev):

    -6.9960   4.5196   5.9667   5.9667   8.4359  11.0403  11.7601  11.7601
    16.5645

          k =-0.1436-0.2488 0.2558 (   522 PWs)   bands (ev):

    -5.9250   0.3917   5.3512   5.6501   9.2996  10.5303  11.7005  13.5632
    15.7167

          k = 0.2873 0.4976-0.0512 (   520 PWs)   bands (ev):

    -4.3490  -2.4704   4.7883   6.1554   7.8796  10.8148  12.5849  13.8261
    17.7262

          k = 0.1436 0.2488 0.0512 (   525 PWs)   bands (ev):

    -6.3695   1.3042   4.9860   7.1720   8.5435  10.8049  12.4702  13.9612
    15.3511

          k =-0.2873 0.0000 0.3581 (   519 PWs)   bands (ev):

    -5.5427   1.1264   3.5658   4.2978   7.5159  10.4217  13.7076  13.7746
    16.9045

          k = 0.1436 0.7464 0.0512 (   510 PWs)   bands (ev):

    -3.8393  -1.8099   2.3270   4.2466   8.0539  11.6204  13.3234  15.7202
    17.3489

          k = 0.0000 0.4976 0.1535 (   521 PWs)   bands (ev):

    -4.7124  -1.4722   3.0016   6.6926   7.7777  12.3034  13.0675  13.4304
    16.0961

          k = 0.5746 0.0000-0.2558 (   510 PWs)   bands (ev):

    -4.0542  -1.5061   3.7084   3.7296   6.0243  10.0593  15.9112  17.7151
    18.4776

          k = 0.0000 0.0000 0.4604 (   522 PWs)   bands (ev):

    -5.8586   0.8361   5.8840   5.8840   7.4114  10.0627  10.0627  12.1191
    17.3944

          k = 0.4309 0.7464 0.1535 (   520 PWs)   bands (ev):

    -4.8493  -0.0498   2.4338   4.7831   7.5088  11.6828  12.0642  14.4760
    17.7700

     the Fermi energy is    10.0033 ev

!    total energy              =     -25.44012222 Ry
     Harris-Foulkes estimate   =     -25.44012223 Ry
     estimated scf accuracy    <       0.00000002 Ry

     The total energy is the sum of the following terms:

     one-electron contribution =       7.72810304 Ry
     hartree contribution      =       1.22166048 Ry
     xc contribution           =      -6.50440148 Ry
     ewald contribution        =     -27.88552965 Ry
     smearing contrib. (-TS)   =       0.00004540 Ry

     convergence has been achieved in   5 iterations

     Forces acting on atoms (cartesian axes, Ry/au):

     atom    1 type  1   force =     0.00000000    0.00000000   -0.12659859
     atom    2 type  1   force =     0.00000000    0.00000000    0.12659859

     Total force =     0.179037     Total SCF correction =     0.000023


     Computing stress (Cartesian axis) and pressure

          total   stress  (Ry/bohr**3)                   (kbar)     P=  217.52
   0.00172376   0.00000000   0.00000000        253.57      0.00      0.00
   0.00000000   0.00172376   0.00000000          0.00    253.57      0.00
   0.00000000   0.00000000   0.00098855          0.00      0.00    145.42


     BFGS Geometry Optimization

     number of scf cycles    =   1
     number of bfgs steps    =   0

     enthalpy new            =     -24.6061248134 Ry

     new trust radius        =       0.1887844999 bohr
     new conv_thr            =       0.0000001000 Ry

     new unit-cell volume =    211.67559 a.u.^3 (    31.36709 Ang^3 )
     density =      7.93025 g/cm^3

CELL_PARAMETERS (alat=  7.01033623)
   0.555834183   0.000000000   0.765441431
  -0.277916917   0.481366477   0.765441436
  -0.277916917  -0.481366477   0.765441436

ATOMIC_POSITIONS (crystal)
As       0.282619657   0.282619653   0.282619653
As      -0.282619657  -0.282619653  -0.282619653



     Writing output data file pwscf.save/
     NEW-OLD atomic charge density approx. for the potential
     extrapolated charge    8.40825, renormalised to   10.00000

     total cpu time spent up to now is        0.4 secs

     Self-consistent Calculation

     iteration #  1     ecut=    25.00 Ry     beta= 0.70
     Davidson diagonalization with overlap
     ethr =  1.00E-06,  avg # of iterations =  5.1

     total cpu time spent up to now is        0.5 secs

     total energy              =     -25.38370851 Ry
     Harris-Foulkes estimate   =     -24.32078266 Ry
     estimated scf accuracy    <       0.02063950 Ry

     iteration #  2     ecut=    25.00 Ry     beta= 0.70
     Davidson diagonalization with overlap
     ethr =  2.06E-04,  avg # of iterations =  2.6

     total cpu time spent up to now is        0.5 secs

     total energy              =     -25.40138658 Ry
     Harris-Foulkes estimate   =     -25.40441204 Ry
     estimated scf accuracy    <       0.00628320 Ry

     iteration #  3     ecut=    25.00 Ry     beta= 0.70
     Davidson diagonalization with overlap
     ethr =  6.28E-05,  avg # of iterations =  1.1

     total cpu time spent up to now is        0.6 secs

     total energy              =     -25.40159445 Ry
     Harris-Foulkes estimate   =     -25.40189836 Ry
     estimated scf accuracy    <       0.00065384 Ry

     iteration #  4     ecut=    25.00 Ry     beta= 0.70
     Davidson diagonalization with overlap
     ethr =  6.54E-06,  avg # of iterations =  2.0

     total cpu time spent up to now is        0.6 secs

     total energy              =     -25.40163750 Ry
     Harris-Foulkes estimate   =     -25.40166578 Ry
     estimated scf accuracy    <       0.00005044 Ry

     iteration #  5     ecut=    25.00 Ry     beta= 0.70
     Davidson diagonalization with overlap
     ethr =  5.04E-07,  avg # of iterations =  2.8

     total cpu time spent up to now is        0.7 secs

     total energy              =     -25.40166217 Ry
     Harris-Foulkes estimate   =     -25.40166290 Ry
     estimated scf accuracy    <       0.00000331 Ry

     iteration #  6     ecut=    25.00 Ry     beta= 0.70
     Davidson diagonalization with overlap
     ethr =  3.31E-08,  avg # of iterations =  1.3

     total cpu time spent up to now is        0.7 secs

     total energy              =     -25.40166131 Ry
     Harris-Foulkes estimate   =     -25.40166223 Ry
     estimated scf accuracy    <       0.00000165 Ry

     iteration #  7     ecut=    25.00 Ry     beta= 0.70
     Davidson diagonalization with overlap
     ethr =  1.65E-08,  avg # of iterations =  2.0

     total cpu time spent up to now is        0.7 secs

     End of self-consistent calculation

          k = 0.0000 0.0000 0.1633 (   531 PWs)   bands (ev):

    -5.9367   7.0817   8.2032   8.2032  11.2581  13.8350  14.3550  14.3550
    18.4339

          k =-0.1499-0.2597 0.2722 (   522 PWs)   bands (ev):

    -4.6714   2.2296   7.2109   8.1029  11.9027  13.1331  13.4309  16.5292
    18.1830

          k = 0.2998 0.5194-0.0544 (   520 PWs)   bands (ev):

    -2.8547  -0.9761   6.9923   7.9649  10.0196  13.7451  14.3129  16.3159
    20.8094

          k = 0.1499 0.2597 0.0544 (   525 PWs)   bands (ev):

    -5.2654   3.5949   7.0489   9.3439  10.6444  13.7211  15.1490  16.5920
    18.0162

          k =-0.2998 0.0000 0.3810 (   519 PWs)   bands (ev):

    -4.1322   3.3399   5.1342   6.0875   9.0187  12.9443  16.5259  17.0166
    19.1508

          k = 0.1499 0.7790 0.0544 (   510 PWs)   bands (ev):

    -2.0535  -0.0682   3.6590   5.6372  10.0896  14.2403  15.7481  18.9064
    20.2715

          k = 0.0000 0.5194 0.1633 (   521 PWs)   bands (ev):

    -3.3505   0.4109   4.7586   8.2224  10.1013  14.6107  15.9234  16.2643
    18.6227

          k = 0.5997 0.0000-0.2722 (   510 PWs)   bands (ev):

    -2.4288   0.5228   4.8732   5.4349   7.5395  12.5225  18.7270  20.6442
    21.7479

          k = 0.0000 0.0000 0.4899 (   522 PWs)   bands (ev):

    -4.3331   1.9783   8.1315   8.1315  10.5522  11.9553  11.9553  14.3778
    20.4089

          k = 0.4498 0.7790 0.1633 (   520 PWs)   bands (ev):

    -3.0367   1.3418   3.7838   6.7673   9.3544  14.2225  14.7923  17.7407
    20.1086

     the Fermi energy is    11.9332 ev

!    total energy              =     -25.40166155 Ry
     Harris-Foulkes estimate   =     -25.40166155 Ry
     estimated scf accuracy    <          3.5E-09 Ry

     The total energy is the sum of the following terms:

     one-electron contribution =       9.92262552 Ry
     hartree contribution      =       0.89911348 Ry
     xc contribution           =      -6.68612134 Ry
     ewald contribution        =     -29.53715167 Ry
     smearing contrib. (-TS)   =      -0.00012754 Ry

     convergence has been achieved in   7 iterations

     Forces acting on atoms (cartesian axes, Ry/au):

     atom    1 type  1   force =     0.00000000    0.00000000   -0.13944839
     atom    2 type  1   force =     0.00000000    0.00000000    0.13944839

     Total force =     0.197210     Total SCF correction =     0.000043


     Computing stress (Cartesian axis) and pressure

          total   stress  (Ry/bohr**3)                   (kbar)     P=  444.95
   0.00333261   0.00000000   0.00000000        490.24      0.00      0.00
   0.00000000   0.00333261   0.00000000          0.00    490.24      0.00
   0.00000000   0.00000000   0.00240898          0.00      0.00    354.37


     number of scf cycles    =   2
     number of bfgs steps    =   1

     enthalpy old            =     -24.6061248134 Ry
     enthalpy new            =     -24.6821907353 Ry

     CASE: enthalpy_new < enthalpy_old

     new trust radius        =       0.3019760365 bohr
     new conv_thr            =       0.0000001000 Ry

     new unit-cell volume =    183.03303 a.u.^3 (    27.12270 Ang^3 )
     density =      9.17124 g/cm^3

CELL_PARAMETERS (alat=  7.01033623)
   0.539853797   0.000000000   0.701631105
  -0.269926760   0.467527057   0.701631133
  -0.269926760  -0.467527057   0.701631133

ATOMIC_POSITIONS (crystal)
As       0.263861066   0.263861049   0.263861049
As      -0.263861066  -0.263861049  -0.263861049



     Writing output data file pwscf.save/
     NEW-OLD atomic charge density approx. for the potential
     extrapolated charge    8.43518, renormalised to   10.00000

     total cpu time spent up to now is        0.8 secs

     Self-consistent Calculation

     iteration #  1     ecut=    25.00 Ry     beta= 0.70
     Davidson diagonalization with overlap
     ethr =  1.00E-06,  avg # of iterations =  7.1

     total cpu time spent up to now is        0.9 secs

     total energy              =     -25.34462604 Ry
     Harris-Foulkes estimate   =     -24.15519042 Ry
     estimated scf accuracy    <       0.01769134 Ry

     iteration #  2     ecut=    25.00 Ry     beta= 0.70
     Davidson diagonalization with overlap
     ethr =  1.77E-04,  avg # of iterations =  2.1

     total cpu time spent up to now is        1.0 secs

     total energy              =     -25.35391954 Ry
     Harris-Foulkes estimate   =     -25.35521118 Ry
     estimated scf accuracy    <       0.00290901 Ry

     iteration #  3     ecut=    25.00 Ry     beta= 0.70
     Davidson diagonalization with overlap
     ethr =  2.91E-05,  avg # of iterations =  1.1

     total cpu time spent up to now is        1.0 secs

     total energy              =     -25.35400668 Ry
     Harris-Foulkes estimate   =     -25.35412805 Ry
     estimated scf accuracy    <       0.00027641 Ry

     iteration #  4     ecut=    25.00 Ry     beta= 0.70
     Davidson diagonalization with overlap
     ethr =  2.76E-06,  avg # of iterations =  2.1

     total cpu time spent up to now is        1.0 secs

     total energy              =     -25.35404688 Ry
     Harris-Foulkes estimate   =     -25.35405377 Ry
     estimated scf accuracy    <       0.00001379 Ry

     iteration #  5     ecut=    25.00 Ry     beta= 0.70
     Davidson diagonalization with overlap
     ethr =  1.38E-07,  avg # of iterations =  1.7

     total cpu time spent up to now is        1.1 secs

     total energy              =     -25.35404789 Ry
     Harris-Foulkes estimate   =     -25.35404831 Ry
     estimated scf accuracy    <       0.00000073 Ry

     iteration #  6     ecut=    25.00 Ry     beta= 0.70
     Davidson diagonalization with overlap
     ethr =  7.33E-09,  avg # of iterations =  2.5

     total cpu time spent up to now is        1.1 secs

     End of self-consistent calculation

          k = 0.0000 0.0000 0.1782 (   531 PWs)   bands (ev):

    -4.6205   9.9126  10.7891  10.7891  14.3255  17.6817  17.6817  17.9912
    19.7716

          k =-0.1544-0.2674 0.2969 (   522 PWs)   bands (ev):

    -3.1157   4.1035   9.8093  11.8603  14.1839  14.3307  16.3499  19.7371
    21.1375

          k = 0.3087 0.5347-0.0594 (   520 PWs)   bands (ev):

    -1.0934   0.6900   9.9550  10.4615  11.9453  15.7402  17.5257  19.6590
    24.8247

          k = 0.1544 0.2674 0.0594 (   525 PWs)   bands (ev):

    -3.9458   6.2431   9.4929  11.3902  13.3914  17.6838  18.5317  19.3202
    20.5552

          k =-0.3087 0.0000 0.4157 (   519 PWs)   bands (ev):

    -2.3094   5.6935   7.7049   8.0169   9.9729  16.1619  19.4720  20.3831
    20.8735

          k = 0.1544 0.8021 0.0594 (   510 PWs)   bands (ev):

     0.3805   1.7730   5.1132   7.3127  12.5986  16.6470  18.2783  23.1596
    23.6093

          k = 0.0000 0.5347 0.1782 (   521 PWs)   bands (ev):

    -1.7598   2.5260   7.2644   9.5065  13.4608  16.6331  19.1892  19.8718
    21.3138

          k = 0.6175 0.0000-0.2969 (   510 PWs)   bands (ev):

    -0.4672   3.6384   5.4660   7.3446   9.0994  15.9645  21.7300  22.8442
    25.5617

          k = 0.0000 0.0000 0.5345 (   522 PWs)   bands (ev):

    -2.1710   3.2605  10.8671  10.8671  13.5264  13.5264  13.8805  15.9384
    24.4486

          k = 0.4631 0.8021 0.1782 (   520 PWs)   bands (ev):

    -0.1117   2.1284   5.6223   9.0777  10.9316  16.1662  18.1827  21.5570
    22.8826

     the Fermi energy is    14.1988 ev

!    total energy              =     -25.35404808 Ry
     Harris-Foulkes estimate   =     -25.35404808 Ry
     estimated scf accuracy    <          6.1E-09 Ry

     The total energy is the sum of the following terms:

     one-electron contribution =      12.37615934 Ry
     hartree contribution      =       0.55960767 Ry
     xc contribution           =      -6.86700567 Ry
     ewald contribution        =     -31.42272361 Ry
     smearing contrib. (-TS)   =      -0.00008581 Ry

     convergence has been achieved in   6 iterations

     Forces acting on atoms (cartesian axes, Ry/au):

     atom    1 type  1   force =     0.00000000    0.00000000   -0.06408190
     atom    2 type  1   force =     0.00000000    0.00000000    0.06408190

     Total force =     0.090625     Total SCF correction =     0.000068


     Computing stress (Cartesian axis) and pressure

          total   stress  (Ry/bohr**3)                   (kbar)     P=  681.16
   0.00460010   0.00000000   0.00000000        676.70      0.00      0.00
   0.00000000   0.00460010   0.00000000          0.00    676.70      0.00
   0.00000000   0.00000000   0.00469115          0.00      0.00    690.09


     number of scf cycles    =   3
     number of bfgs steps    =   2

     enthalpy old            =     -24.6821907353 Ry
     enthalpy new            =     -24.7319313338 Ry

     CASE: enthalpy_new < enthalpy_old

     new trust radius        =       0.0715278578 bohr
     new conv_thr            =       0.0000000641 Ry

     new unit-cell volume =    190.16902 a.u.^3 (    28.18014 Ang^3 )
     density =      8.82709 g/cm^3

CELL_PARAMETERS (alat=  7.01033623)
   0.546565647   0.000000000   0.711191862
  -0.273282695   0.473339689   0.711191898
  -0.273282695  -0.473339689   0.711191898

ATOMIC_POSITIONS (crystal)
As       0.259013697   0.259013677   0.259013677
As      -0.259013697  -0.259013677  -0.259013677



     Writing output data file pwscf.save/
     NEW-OLD atomic charge density approx. for the potential
     extrapolated charge   10.37523, renormalised to   10.00000

     total cpu time spent up to now is        1.2 secs

     Self-consistent Calculation

     iteration #  1     ecut=    25.00 Ry     beta= 0.70
     Davidson diagonalization with overlap
     ethr =  1.00E-06,  avg # of iterations =  6.6

     total cpu time spent up to now is        1.3 secs

     total energy              =     -25.38978157 Ry
     Harris-Foulkes estimate   =     -25.68125907 Ry
     estimated scf accuracy    <       0.00086565 Ry

     iteration #  2     ecut=    25.00 Ry     beta= 0.70
     Davidson diagonalization with overlap
     ethr =  8.66E-06,  avg # of iterations =  2.0

     total cpu time spent up to now is        1.3 secs

     total energy              =     -25.39023531 Ry
     Harris-Foulkes estimate   =     -25.39031799 Ry
     estimated scf accuracy    <       0.00017481 Ry

     iteration #  3     ecut=    25.00 Ry     beta= 0.70
     Davidson diagonalization with overlap
     ethr =  1.75E-06,  avg # of iterations =  1.1

     total cpu time spent up to now is        1.4 secs

     total energy              =     -25.39025061 Ry
     Harris-Foulkes estimate   =     -25.39025756 Ry
     estimated scf accuracy    <       0.00001723 Ry

     iteration #  4     ecut=    25.00 Ry     beta= 0.70
     Davidson diagonalization with overlap
     ethr =  1.72E-07,  avg # of iterations =  1.2

     total cpu time spent up to now is        1.4 secs

     total energy              =     -25.39025224 Ry
     Harris-Foulkes estimate   =     -25.39025258 Ry
     estimated scf accuracy    <       0.00000076 Ry

     iteration #  5     ecut=    25.00 Ry     beta= 0.70
     Davidson diagonalization with overlap
     ethr =  7.63E-09,  avg # of iterations =  3.0

     total cpu time spent up to now is        1.4 secs

     total energy              =     -25.39025263 Ry
     Harris-Foulkes estimate   =     -25.39025266 Ry
     estimated scf accuracy    <       0.00000008 Ry

     iteration #  6     ecut=    25.00 Ry     beta= 0.70
     Davidson diagonalization with overlap
     ethr =  7.92E-10,  avg # of iterations =  1.0

     total cpu time spent up to now is        1.5 secs

     End of self-consistent calculation

          k = 0.0000 0.0000 0.1758 (   531 PWs)   bands (ev):

    -4.8199   9.0293  10.2830  10.2830  13.3627  17.0775  17.0775  17.4617
    18.9631

          k =-0.1525-0.2641 0.2929 (   522 PWs)   bands (ev):

    -3.3507   3.6000   9.2268  11.6229  13.1494  13.5911  15.4242  19.1739
    20.0847

          k = 0.3049 0.5282-0.0586 (   520 PWs)   bands (ev):

    -1.3712   0.3036   9.5724   9.9078  11.2118  14.8603  16.7332  18.6005
    23.9921

          k = 0.1525 0.2641 0.0586 (   525 PWs)   bands (ev):

    -4.1631   5.6771   9.0495  10.6816  12.7383  16.7393  17.9220  18.4116
    19.3748

          k =-0.3049 0.0000 0.4101 (   519 PWs)   bands (ev):

    -2.5650   4.9814   7.4063   7.6119   9.1986  15.7760  18.6847  19.3937
    19.7775

          k = 0.1525 0.7922 0.0586 (   510 PWs)   bands (ev):

     0.0485   1.3379   4.7638   6.7970  11.8954  15.8351  17.7093  22.2404
    22.5659

          k = 0.0000 0.5282 0.1758 (   521 PWs)   bands (ev):

    -2.0359   2.0865   6.9289   8.8408  12.8263  15.6357  18.5853  18.9898
    20.3176

          k = 0.6099 0.0000-0.2929 (   510 PWs)   bands (ev):

    -0.8097   3.4109   4.7273   6.9658   8.4735  15.5450  20.7289  21.5690
    24.3833

          k = 0.0000 0.0000 0.5273 (   522 PWs)   bands (ev):

    -2.4035   2.6568  10.4489  10.4489  12.8312  12.8312  13.2316  14.9817
    23.5666

          k = 0.4574 0.7922 0.1758 (   520 PWs)   bands (ev):

    -0.3055   1.4322   5.3212   8.6726  10.2599  15.3862  17.3843  20.6460
    22.2409

     the Fermi energy is    13.1969 ev

!    total energy              =     -25.39025263 Ry
     Harris-Foulkes estimate   =     -25.39025263 Ry
     estimated scf accuracy    <          8.0E-09 Ry

     The total energy is the sum of the following terms:

     one-electron contribution =      11.89667639 Ry
     hartree contribution      =       0.57918141 Ry
     xc contribution           =      -6.79963260 Ry
     ewald contribution        =     -31.06646074 Ry
     smearing contrib. (-TS)   =      -0.00001709 Ry

     convergence has been achieved in   6 iterations

     Forces acting on atoms (cartesian axes, Ry/au):

     atom    1 type  1   force =     0.00000000    0.00000000   -0.04260505
     atom    2 type  1   force =     0.00000000    0.00000000    0.04260505

     Total force =     0.060253     Total SCF correction =     0.000016


     Computing stress (Cartesian axis) and pressure

          total   stress  (Ry/bohr**3)                   (kbar)     P=  525.82
   0.00338999   0.00000000   0.00000000        498.68      0.00      0.00
   0.00000000   0.00338999   0.00000000          0.00    498.68      0.00
   0.00000000   0.00000000   0.00394343          0.00      0.00    580.10


     number of scf cycles    =   4
     number of bfgs steps    =   3

     enthalpy old            =     -24.7319313338 Ry
     enthalpy new            =     -24.7438811469 Ry

     CASE: enthalpy_new < enthalpy_old

     new trust radius        =       0.1595055675 bohr
     new conv_thr            =       0.0000000426 Ry

     new unit-cell volume =    191.30818 a.u.^3 (    28.34895 Ang^3 )
     density =      8.77453 g/cm^3

CELL_PARAMETERS (alat=  7.01033623)
   0.545423116   0.000000000   0.718452578
  -0.272711455   0.472350227   0.718452629
  -0.272711455  -0.472350227   0.718452629

ATOMIC_POSITIONS (crystal)
As       0.248349485   0.248349458   0.248349458
As      -0.248349485  -0.248349458  -0.248349458



     Writing output data file pwscf.save/
     NEW-OLD atomic charge density approx. for the potential
     extrapolated charge   10.05954, renormalised to   10.00000

     total cpu time spent up to now is        1.5 secs

     Self-consistent Calculation

     iteration #  1     ecut=    25.00 Ry     beta= 0.70
     Davidson diagonalization with overlap
     ethr =  1.00E-06,  avg # of iterations =  8.2

     total cpu time spent up to now is        1.6 secs

     total energy              =     -25.40060315 Ry
     Harris-Foulkes estimate   =     -25.44671606 Ry
     estimated scf accuracy    <       0.00123993 Ry

     iteration #  2     ecut=    25.00 Ry     beta= 0.70
     Davidson diagonalization with overlap
     ethr =  1.24E-05,  avg # of iterations =  1.0

     total cpu time spent up to now is        1.7 secs

     total energy              =     -25.40060560 Ry
     Harris-Foulkes estimate   =     -25.40061925 Ry
     estimated scf accuracy    <       0.00009338 Ry

     iteration #  3     ecut=    25.00 Ry     beta= 0.70
     Davidson diagonalization with overlap
     ethr =  9.34E-07,  avg # of iterations =  1.0

     total cpu time spent up to now is        1.7 secs

     total energy              =     -25.40060743 Ry
     Harris-Foulkes estimate   =     -25.40060743 Ry
     estimated scf accuracy    <       0.00000005 Ry

     iteration #  4     ecut=    25.00 Ry     beta= 0.70
     Davidson diagonalization with overlap
     ethr =  4.70E-10,  avg # of iterations =  4.0

     total cpu time spent up to now is        1.8 secs

     total energy              =     -25.40060811 Ry
     Harris-Foulkes estimate   =     -25.40060811 Ry
     estimated scf accuracy    <       0.00000005 Ry

     iteration #  5     ecut=    25.00 Ry     beta= 0.70
     Davidson diagonalization with overlap
     ethr =  4.70E-10,  avg # of iterations =  1.0

     total cpu time spent up to now is        1.8 secs

     End of self-consistent calculation

          k = 0.0000 0.0000 0.1740 (   531 PWs)   bands (ev):

    -4.8323   8.7450  10.3299  10.3299  13.2294  17.0743  17.0743  17.7063
    18.7930

          k =-0.1528-0.2646 0.2900 (   522 PWs)   bands (ev):

    -3.3645   3.5628   9.0023  12.1614  12.4600  13.5133  15.3423  19.3063
    19.7034

          k = 0.3056 0.5293-0.0580 (   520 PWs)   bands (ev):

    -1.3483   0.2511   9.6430   9.7335  11.0817  14.5824  16.6494  18.1914
    23.6341

          k = 0.1528 0.2646 0.0580 (   525 PWs)   bands (ev):

    -4.1680   5.6533   9.0895  10.4995  12.5979  16.5034  18.1060  18.1526
    18.7735

          k =-0.3056 0.0000 0.4060 (   519 PWs)   bands (ev):

    -2.5861   4.7703   7.5474   7.6656   8.8881  15.8381  18.6424  19.3133
    19.6536

          k = 0.1528 0.7939 0.0580 (   510 PWs)   bands (ev):

     0.0518   1.3039   4.7332   6.6123  11.7686  15.7584  17.7044  22.0343
    22.5982

          k = 0.0000 0.5293 0.1740 (   521 PWs)   bands (ev):

    -2.0360   2.0711   6.9582   8.6040  12.7322  15.2386  18.4922  18.9894
    20.1208

          k = 0.6111 0.0000-0.2900 (   510 PWs)   bands (ev):

    -0.8224   3.6601   4.2749   7.0146   8.3186  15.4954  20.5133  21.2593
    24.2155

          k = 0.0000 0.0000 0.5220 (   522 PWs)   bands (ev):

    -2.4223   2.3798  10.5756  10.5756  12.7332  12.7332  13.4268  14.8282
    23.4465

          k = 0.4584 0.7939 0.1740 (   520 PWs)   bands (ev):

    -0.1908   1.0657   5.3557   8.7323  10.2023  15.3101  17.4873  20.5947
    22.2516

     the Fermi energy is    12.7897 ev

!    total energy              =     -25.40060810 Ry
     Harris-Foulkes estimate   =     -25.40060811 Ry
     estimated scf accuracy    <       0.00000001 Ry

     The total energy is the sum of the following terms:

     one-electron contribution =      11.84271843 Ry
     hartree contribution      =       0.57430165 Ry
     xc contribution           =      -6.78686489 Ry
     ewald contribution        =     -31.03083627 Ry
     smearing contrib. (-TS)   =       0.00007299 Ry

     convergence has been achieved in   5 iterations

     Forces acting on atoms (cartesian axes, Ry/au):

     atom    1 type  1   force =     0.00000000    0.00000000    0.00723910
     atom    2 type  1   force =     0.00000000    0.00000000   -0.00723910

     Total force =     0.010238     Total SCF correction =     0.000021


     Computing stress (Cartesian axis) and pressure

          total   stress  (Ry/bohr**3)                   (kbar)     P=  494.43
   0.00317554   0.00000000   0.00000000        467.14      0.00      0.00
   0.00000000   0.00317554   0.00000000          0.00    467.14      0.00
   0.00000000   0.00000000   0.00373213          0.00      0.00    549.02


     number of scf cycles    =   5
     number of bfgs steps    =   4

     enthalpy old            =     -24.7438811469 Ry
     enthalpy new            =     -24.7503647030 Ry

     CASE: enthalpy_new < enthalpy_old

     new trust radius        =       0.0303416375 bohr
     new conv_thr            =       0.0000000072 Ry

     new unit-cell volume =    192.20688 a.u.^3 (    28.48212 Ang^3 )
     density =      8.73350 g/cm^3

CELL_PARAMETERS (alat=  7.01033623)
   0.543728935   0.000000000   0.726332836
  -0.271864366   0.470883023   0.726332886
  -0.271864366  -0.470883023   0.726332886

ATOMIC_POSITIONS (crystal)
As       0.249489877   0.249489850   0.249489850
As      -0.249489877  -0.249489850  -0.249489850



     Writing output data file pwscf.save/
     NEW-OLD atomic charge density approx. for the potential
     extrapolated charge   10.04675, renormalised to   10.00000

     total cpu time spent up to now is        1.9 secs

     Self-consistent Calculation

     iteration #  1     ecut=    25.00 Ry     beta= 0.70
     Davidson diagonalization with overlap
     ethr =  1.00E-06,  avg # of iterations =  4.2

     total cpu time spent up to now is        1.9 secs

     total energy              =     -25.40470620 Ry
     Harris-Foulkes estimate   =     -25.44066855 Ry
     estimated scf accuracy    <       0.00001903 Ry

     iteration #  2     ecut=    25.00 Ry     beta= 0.70
     Davidson diagonalization with overlap
     ethr =  1.90E-07,  avg # of iterations =  2.0

     total cpu time spent up to now is        2.0 secs

     total energy              =     -25.40471094 Ry
     Harris-Foulkes estimate   =     -25.40471157 Ry
     estimated scf accuracy    <       0.00000235 Ry

     iteration #  3     ecut=    25.00 Ry     beta= 0.70
     Davidson diagonalization with overlap
     ethr =  2.35E-08,  avg # of iterations =  1.1

     total cpu time spent up to now is        2.0 secs

     total energy              =     -25.40471101 Ry
     Harris-Foulkes estimate   =     -25.40471102 Ry
     estimated scf accuracy    <       0.00000009 Ry

     iteration #  4     ecut=    25.00 Ry     beta= 0.70
     Davidson diagonalization with overlap
     ethr =  9.39E-10,  avg # of iterations =  2.2

     total cpu time spent up to now is        2.0 secs

     End of self-consistent calculation

          k = 0.0000 0.0000 0.1721 (   531 PWs)   bands (ev):

    -4.8684   8.5218  10.3471  10.3471  13.1538  16.9881  16.9881  17.6923
    18.7833

          k =-0.1533-0.2655 0.2868 (   522 PWs)   bands (ev):

    -3.4069   3.5409   8.7825  12.2042  12.3208  13.4822  15.2822  19.3381
    19.4614

          k = 0.3065 0.5309-0.0574 (   520 PWs)   bands (ev):

    -1.3612   0.2051   9.5378   9.6195  11.0435  14.4602  16.5245  17.8732
    23.2228

          k = 0.1533 0.2655 0.0574 (   525 PWs)   bands (ev):

    -4.1937   5.6149   9.0944  10.3727  12.4652  16.3434  17.8815  17.9765
    18.6180

          k =-0.3065 0.0000 0.4016 (   519 PWs)   bands (ev):

    -2.6456   4.6118   7.5214   7.7041   8.8034  15.7623  18.6183  19.3228
    19.6757

          k = 0.1533 0.7964 0.0574 (   510 PWs)   bands (ev):

    -0.0156   1.2829   4.7084   6.4702  11.6582  15.7371  17.6956  21.8549
    22.5381

          k = 0.0000 0.5309 0.1721 (   521 PWs)   bands (ev):

    -2.0589   2.0442   6.8979   8.4939  12.5607  15.0160  18.3718  18.9588
    20.0346

          k = 0.6131 0.0000-0.2868 (   510 PWs)   bands (ev):

    -0.8624   3.5819   4.1804   7.0437   8.2275  15.3333  20.3663  21.1607
    24.0839

          k = 0.0000 0.0000 0.5163 (   522 PWs)   bands (ev):

    -2.5081   2.1956  10.6186  10.6186  12.7373  12.7373  13.5006  14.8818
    23.2835

          k = 0.4598 0.7964 0.1721 (   520 PWs)   bands (ev):

    -0.2908   0.9360   5.3488   8.7523  10.2179  15.3101  17.5576  20.5942
    22.0237

     the Fermi energy is    12.7946 ev

!    total energy              =     -25.40471102 Ry
     Harris-Foulkes estimate   =     -25.40471102 Ry
     estimated scf accuracy    <          2.8E-09 Ry

     The total energy is the sum of the following terms:

     one-electron contribution =      11.77378643 Ry
     hartree contribution      =       0.58046083 Ry
     xc contribution           =      -6.77983820 Ry
     ewald contribution        =     -30.97913822 Ry
     smearing contrib. (-TS)   =       0.00001815 Ry

     convergence has been achieved in   4 iterations

     Forces acting on atoms (cartesian axes, Ry/au):

     atom    1 type  1   force =     0.00000000    0.00000000    0.00217801
     atom    2 type  1   force =     0.00000000    0.00000000   -0.00217801

     Total force =     0.003080     Total SCF correction =     0.000004


     Computing stress (Cartesian axis) and pressure

          total   stress  (Ry/bohr**3)                   (kbar)     P=  480.35
   0.00311302   0.00000000   0.00000000        457.94      0.00      0.00
   0.00000000   0.00311302   0.00000000          0.00    457.94      0.00
   0.00000000   0.00000000   0.00357000          0.00      0.00    525.17


     number of scf cycles    =   6
     number of bfgs steps    =   5

     enthalpy old            =     -24.7503647030 Ry
     enthalpy new            =     -24.7514130119 Ry

     CASE: enthalpy_new < enthalpy_old

     new trust radius        =       0.0451242914 bohr
     new conv_thr            =       0.0000000022 Ry

     new unit-cell volume =    192.30771 a.u.^3 (    28.49706 Ang^3 )
     density =      8.72893 g/cm^3

CELL_PARAMETERS (alat=  7.01033623)
   0.539499329   0.000000000   0.738153220
  -0.269749569   0.467220076   0.738153273
  -0.269749569  -0.467220076   0.738153273

ATOMIC_POSITIONS (crystal)
As       0.250229711   0.250229685   0.250229685
As      -0.250229711  -0.250229685  -0.250229685



     Writing output data file pwscf.save/
     NEW-OLD atomic charge density approx. for the potential
     extrapolated charge   10.00524, renormalised to   10.00000

     total cpu time spent up to now is        2.1 secs

     Self-consistent Calculation

     iteration #  1     ecut=    25.00 Ry     beta= 0.70
     Davidson diagonalization with overlap
     ethr =  1.00E-06,  avg # of iterations =  4.2

     total cpu time spent up to now is        2.2 secs

     total energy              =     -25.40614941 Ry
     Harris-Foulkes estimate   =     -25.41017631 Ry
     estimated scf accuracy    <       0.00001075 Ry

     iteration #  2     ecut=    25.00 Ry     beta= 0.70
     Davidson diagonalization with overlap
     ethr =  1.07E-07,  avg # of iterations =  1.0

     total cpu time spent up to now is        2.2 secs

     total energy              =     -25.40614962 Ry
     Harris-Foulkes estimate   =     -25.40614958 Ry
     estimated scf accuracy    <       0.00000090 Ry

     iteration #  3     ecut=    25.00 Ry     beta= 0.70
     Davidson diagonalization with overlap
     ethr =  9.05E-09,  avg # of iterations =  1.0

     total cpu time spent up to now is        2.2 secs

     End of self-consistent calculation

          k = 0.0000 0.0000 0.1693 (   531 PWs)   bands (ev):

    -4.8845   8.2745  10.4947  10.4947  13.2148  16.9902  16.9902  17.8216
    18.9005

          k =-0.1545-0.2675 0.2822 (   522 PWs)   bands (ev):

    -3.4249   3.6024   8.5227  12.2807  12.3366  13.5717  15.3497  19.2307
    19.5376

          k = 0.3089 0.5351-0.0564 (   520 PWs)   bands (ev):

    -1.3175   0.2074   9.3180   9.6824  11.1041  14.4010  16.4805  17.5058
    22.6965

          k = 0.1545 0.2675 0.0564 (   525 PWs)   bands (ev):

    -4.1881   5.6729   9.2086  10.2617  12.3700  16.2290  17.5993  17.8447
    18.5714

          k =-0.3089 0.0000 0.3951 (   519 PWs)   bands (ev):

    -2.6868   4.4589   7.5629   7.8634   8.7963  15.7402  18.7361  19.5191
    19.9071

          k = 0.1545 0.8026 0.0564 (   510 PWs)   bands (ev):

    -0.0481   1.3360   4.7393   6.3245  11.5988  15.8452  17.8154  21.7161
    22.6164

          k = 0.0000 0.5351 0.1693 (   521 PWs)   bands (ev):

    -2.0351   2.0940   6.8807   8.4199  12.3840  14.7946  18.3278  19.0670
    20.0763

          k = 0.6179 0.0000-0.2822 (   510 PWs)   bands (ev):

    -0.8532   3.5335   4.1230   7.1823   8.1787  15.1753  20.2846  21.1800
    24.0390

          k = 0.0000 0.0000 0.5080 (   522 PWs)   bands (ev):

    -2.5952   1.9839  10.8005  10.8005  12.8741  12.8741  13.7765  15.1431
    23.1790

          k = 0.4634 0.8026 0.1693 (   520 PWs)   bands (ev):

    -0.3963   0.8217   5.4146   8.8845  10.3686  15.4528  17.8460  20.7223
    21.8295

     the Fermi energy is    12.9314 ev

!    total energy              =     -25.40614964 Ry
     Harris-Foulkes estimate   =     -25.40614964 Ry
     estimated scf accuracy    <          8.2E-10 Ry

     The total energy is the sum of the following terms:

     one-electron contribution =      11.75890048 Ry
     hartree contribution      =       0.58344171 Ry
     xc contribution           =      -6.77985322 Ry
     ewald contribution        =     -30.96865673 Ry
     smearing contrib. (-TS)   =       0.00001812 Ry

     convergence has been achieved in   3 iterations

     Forces acting on atoms (cartesian axes, Ry/au):

     atom    1 type  1   force =     0.00000000    0.00000000   -0.00093633
     atom    2 type  1   force =     0.00000000    0.00000000    0.00093633

     Total force =     0.001324     Total SCF correction =     0.000002


     Computing stress (Cartesian axis) and pressure

          total   stress  (Ry/bohr**3)                   (kbar)     P=  478.07
   0.00316739   0.00000000   0.00000000        465.94      0.00      0.00
   0.00000000   0.00316739   0.00000000          0.00    465.94      0.00
   0.00000000   0.00000000   0.00341477          0.00      0.00    502.33


     number of scf cycles    =   7
     number of bfgs steps    =   6

     enthalpy old            =     -24.7514130119 Ry
     enthalpy new            =     -24.7525089174 Ry

     CASE: enthalpy_new < enthalpy_old

     new trust radius        =       0.0451478575 bohr
     new conv_thr            =       0.0000000010 Ry

     new unit-cell volume =    191.31184 a.u.^3 (    28.34949 Ang^3 )
     density =      8.77436 g/cm^3

CELL_PARAMETERS (alat=  7.01033623)
   0.533773684   0.000000000   0.750169091
  -0.266886756   0.462261521   0.750169147
  -0.266886756  -0.462261521   0.750169147

ATOMIC_POSITIONS (crystal)
As       0.250426688   0.250426662   0.250426662
As      -0.250426688  -0.250426662  -0.250426662



     Writing output data file pwscf.save/
     NEW-OLD atomic charge density approx. for the potential
     extrapolated charge    9.94795, renormalised to   10.00000

     total cpu time spent up to now is        2.3 secs

     Self-consistent Calculation

     iteration #  1     ecut=    25.00 Ry     beta= 0.70
     Davidson diagonalization with overlap
     ethr =  1.00E-06,  avg # of iterations =  4.8

     Threshold (ethr) on eigenvalues was too large:
     Diagonalizing with lowered threshold

     Davidson diagonalization with overlap
     ethr =  6.52E-08,  avg # of iterations =  1.0

     total cpu time spent up to now is        2.4 secs

     total energy              =     -25.40319875 Ry
     Harris-Foulkes estimate   =     -25.36315037 Ry
     estimated scf accuracy    <       0.00000654 Ry

     iteration #  2     ecut=    25.00 Ry     beta= 0.70
     Davidson diagonalization with overlap
     ethr =  6.54E-08,  avg # of iterations =  2.3

     total cpu time spent up to now is        2.5 secs

     total energy              =     -25.40320398 Ry
     Harris-Foulkes estimate   =     -25.40320448 Ry
     estimated scf accuracy    <       0.00000197 Ry

     iteration #  3     ecut=    25.00 Ry     beta= 0.70
     Davidson diagonalization with overlap
     ethr =  1.97E-08,  avg # of iterations =  1.5

     total cpu time spent up to now is        2.5 secs

     total energy              =     -25.40320398 Ry
     Harris-Foulkes estimate   =     -25.40320403 Ry
     estimated scf accuracy    <       0.00000028 Ry

     iteration #  4     ecut=    25.00 Ry     beta= 0.70
     Davidson diagonalization with overlap
     ethr =  2.75E-09,  avg # of iterations =  1.8

     total cpu time spent up to now is        2.5 secs

     total energy              =     -25.40320400 Ry
     Harris-Foulkes estimate   =     -25.40320400 Ry
     estimated scf accuracy    <          7.1E-09 Ry

     iteration #  5     ecut=    25.00 Ry     beta= 0.70
     Davidson diagonalization with overlap
     ethr =  7.05E-11,  avg # of iterations =  2.5

     total cpu time spent up to now is        2.6 secs

     End of self-consistent calculation

          k = 0.0000 0.0000 0.1666 (   531 PWs)   bands (ev):

    -4.8647   8.0791  10.7615  10.7615  13.4383  17.1184  17.1184  18.1032
    18.8110

          k =-0.1561-0.2704 0.2777 (   522 PWs)   bands (ev):

    -3.3999   3.7480   8.3246  12.4255  12.5044  13.7855  15.5462  19.1058
    19.8991

          k = 0.3122 0.5408-0.0555 (   520 PWs)   bands (ev):

    -1.2129   0.2756   9.1631   9.8429  11.2661  14.4495  16.5654  17.2214
    22.2447

          k = 0.1561 0.2704 0.0555 (   525 PWs)   bands (ev):

    -4.1408   5.8389   9.4271  10.2041  12.3694  16.1906  17.3900  17.8303
    18.6646

          k =-0.3122 0.0000 0.3888 (   519 PWs)   bands (ev):

    -2.6828   4.3672   7.6885   8.1220   8.8992  15.8104  18.9944  19.8754
    20.3089

          k = 0.1561 0.8112 0.0555 (   510 PWs)   bands (ev):

    -0.0151   1.4671   4.8345   6.2378  11.6280  16.0704  18.0698  21.6664
    22.6764

          k = 0.0000 0.5408 0.1666 (   521 PWs)   bands (ev):

    -1.9558   2.2290   6.9341   8.4242  12.2676  14.6625  18.4132  19.3123
    20.2688

          k = 0.6245 0.0000-0.2777 (   510 PWs)   bands (ev):

    -0.7781   3.5648   4.1202   7.4134   8.2051  15.1057  20.3147  21.3265
    24.0848

          k = 0.0000 0.0000 0.4999 (   522 PWs)   bands (ev):

    -2.6427   1.8223  11.0991  11.0991  13.1313  13.1313  14.2173  15.5657
    23.1898

          k = 0.4684 0.8112 0.1666 (   520 PWs)   bands (ev):

    -0.4525   0.7648   5.5583   9.1167  10.6357  15.7229  18.3036  20.8723
    21.8699

     the Fermi energy is    13.1886 ev

!    total energy              =     -25.40320400 Ry
     Harris-Foulkes estimate   =     -25.40320400 Ry
     estimated scf accuracy    <          9.4E-10 Ry

     The total energy is the sum of the following terms:

     one-electron contribution =      11.82568195 Ry
     hartree contribution      =       0.57945175 Ry
     xc contribution           =      -6.78865964 Ry
     ewald contribution        =     -31.01969619 Ry
     smearing contrib. (-TS)   =       0.00001812 Ry

     convergence has been achieved in   5 iterations

     Forces acting on atoms (cartesian axes, Ry/au):

     atom    1 type  1   force =     0.00000000    0.00000000   -0.00183905
     atom    2 type  1   force =     0.00000000    0.00000000    0.00183905

     Total force =     0.002601     Total SCF correction =     0.000002


     Computing stress (Cartesian axis) and pressure

          total   stress  (Ry/bohr**3)                   (kbar)     P=  491.79
   0.00336294   0.00000000   0.00000000        494.71      0.00      0.00
   0.00000000   0.00336294   0.00000000          0.00    494.71      0.00
   0.00000000   0.00000000   0.00330351          0.00      0.00    485.96


     number of scf cycles    =   8
     number of bfgs steps    =   7

     enthalpy old            =     -24.7525089174 Ry
     enthalpy new            =     -24.7529481724 Ry

     CASE: enthalpy_new < enthalpy_old

     new trust radius        =       0.0098972459 bohr
     new conv_thr            =       0.0000000018 Ry

     new unit-cell volume =    190.99429 a.u.^3 (    28.30243 Ang^3 )
     density =      8.78895 g/cm^3

CELL_PARAMETERS (alat=  7.01033623)
   0.534287140   0.000000000   0.747485152
  -0.267143484   0.462706188   0.747485209
  -0.267143484  -0.462706188   0.747485209

ATOMIC_POSITIONS (crystal)
As       0.250142792   0.250142766   0.250142766
As      -0.250142792  -0.250142766  -0.250142766



     Writing output data file pwscf.save/
     NEW-OLD atomic charge density approx. for the potential
     extrapolated charge    9.98337, renormalised to   10.00000

     total cpu time spent up to now is        2.6 secs

     Self-consistent Calculation

     iteration #  1     ecut=    25.00 Ry     beta= 0.70
     Davidson diagonalization with overlap
     ethr =  1.00E-06,  avg # of iterations =  3.1

     Threshold (ethr) on eigenvalues was too large:
     Diagonalizing with lowered threshold

     Davidson diagonalization with overlap
     ethr =  1.64E-08,  avg # of iterations =  1.4

     total cpu time spent up to now is        2.7 secs

     total energy              =     -25.40217342 Ry
     Harris-Foulkes estimate   =     -25.38936471 Ry
     estimated scf accuracy    <       0.00000164 Ry

     iteration #  2     ecut=    25.00 Ry     beta= 0.70
     Davidson diagonalization with overlap
     ethr =  1.64E-08,  avg # of iterations =  2.0

     total cpu time spent up to now is        2.8 secs

     total energy              =     -25.40217407 Ry
     Harris-Foulkes estimate   =     -25.40217413 Ry
     estimated scf accuracy    <       0.00000022 Ry

     iteration #  3     ecut=    25.00 Ry     beta= 0.70
     Davidson diagonalization with overlap
     ethr =  2.15E-09,  avg # of iterations =  1.0

     total cpu time spent up to now is        2.8 secs

     total energy              =     -25.40217407 Ry
     Harris-Foulkes estimate   =     -25.40217408 Ry
     estimated scf accuracy    <       0.00000002 Ry

     iteration #  4     ecut=    25.00 Ry     beta= 0.70
     Davidson diagonalization with overlap
     ethr =  1.60E-10,  avg # of iterations =  1.4

     total cpu time spent up to now is        2.8 secs

     End of self-consistent calculation

          k = 0.0000 0.0000 0.1672 (   531 PWs)   bands (ev):

    -4.8525   8.1617  10.7561  10.7561  13.4668  17.1473  17.1473  18.1149
    18.8774

          k =-0.1560-0.2701 0.2787 (   522 PWs)   bands (ev):

    -3.3857   3.7597   8.3908  12.4669  12.4934  13.7962  15.5767  19.1863
    19.8837

          k = 0.3119 0.5403-0.0557 (   520 PWs)   bands (ev):

    -1.2075   0.2904   9.2246   9.8511  11.2821  14.4864  16.6082  17.3273
    22.3742

          k = 0.1560 0.2701 0.0557 (   525 PWs)   bands (ev):

    -4.1319   5.8526   9.4254  10.2578  12.4110  16.2650  17.4679  17.8849
    18.7063

          k =-0.3119 0.0000 0.3902 (   519 PWs)   bands (ev):

    -2.6633   4.4237   7.6998   8.1099   8.9186  15.8332  19.0068  19.8771
    20.3132

          k = 0.1560 0.8104 0.0557 (   510 PWs)   bands (ev):

     0.0074   1.4761   4.8424   6.2799  11.6691  16.0869  18.0660  21.7441
    22.7624

          k = 0.0000 0.5403 0.1672 (   521 PWs)   bands (ev):

    -1.9477   2.2387   6.9547   8.4567  12.3356  14.7332  18.4479  19.3294
    20.2978

          k = 0.6239 0.0000-0.2787 (   510 PWs)   bands (ev):

    -0.7644   3.5991   4.1419   7.4043   8.2385  15.1500  20.3719  21.3713
    24.1599

          k = 0.0000 0.0000 0.5017 (   522 PWs)   bands (ev):

    -2.6146   1.8796  11.0874  11.0874  13.1292  13.1292  14.1982  15.5487
    23.2516

          k = 0.4679 0.8104 0.1672 (   520 PWs)   bands (ev):

    -0.4174   0.8038   5.5593   9.1109  10.6328  15.7275  18.2904  20.9121
    21.9142

     the Fermi energy is    13.4095 ev

!    total energy              =     -25.40217407 Ry
     Harris-Foulkes estimate   =     -25.40217407 Ry
     estimated scf accuracy    <          2.6E-10 Ry

     The total energy is the sum of the following terms:

     one-electron contribution =      11.84843554 Ry
     hartree contribution      =       0.57791897 Ry
     xc contribution           =      -6.79138642 Ry
     ewald contribution        =     -31.03715123 Ry
     smearing contrib. (-TS)   =       0.00000906 Ry

     convergence has been achieved in   4 iterations

     Forces acting on atoms (cartesian axes, Ry/au):

     atom    1 type  1   force =     0.00000000    0.00000000   -0.00062446
     atom    2 type  1   force =     0.00000000    0.00000000    0.00062446

     Total force =     0.000883     Total SCF correction =     0.000001


     Computing stress (Cartesian axis) and pressure

          total   stress  (Ry/bohr**3)                   (kbar)     P=  496.88
   0.00337773   0.00000000   0.00000000        496.88      0.00      0.00
   0.00000000   0.00337773   0.00000000          0.00    496.88      0.00
   0.00000000   0.00000000   0.00337778          0.00      0.00    496.89


     number of scf cycles    =   9
     number of bfgs steps    =   8

     enthalpy old            =     -24.7529481724 Ry
     enthalpy new            =     -24.7529975829 Ry

     CASE: enthalpy_new < enthalpy_old

     new trust radius        =       0.0021541114 bohr
     new conv_thr            =       0.0000000010 Ry

     new unit-cell volume =    190.79981 a.u.^3 (    28.27361 Ang^3 )
     density =      8.79791 g/cm^3

CELL_PARAMETERS (alat=  7.01033623)
   0.534112914   0.000000000   0.747211284
  -0.267056371   0.462555303   0.747211341
  -0.267056371  -0.462555303   0.747211341

ATOMIC_POSITIONS (crystal)
As       0.250005765   0.250005739   0.250005739
As      -0.250005765  -0.250005739  -0.250005739



     Writing output data file pwscf.save/
     NEW-OLD atomic charge density approx. for the potential
     extrapolated charge    9.98981, renormalised to   10.00000

     total cpu time spent up to now is        2.9 secs

     Self-consistent Calculation

     iteration #  1     ecut=    25.00 Ry     beta= 0.70
     Davidson diagonalization with overlap
     ethr =  1.00E-06,  avg # of iterations =  2.0

     Threshold (ethr) on eigenvalues was too large:
     Diagonalizing with lowered threshold

     Davidson diagonalization with overlap
     ethr =  3.73E-09,  avg # of iterations =  2.3

     total cpu time spent up to now is        3.0 secs

     total energy              =     -25.40151636 Ry
     Harris-Foulkes estimate   =     -25.39365918 Ry
     estimated scf accuracy    <       0.00000035 Ry

     iteration #  2     ecut=    25.00 Ry     beta= 0.70
     Davidson diagonalization with overlap
     ethr =  3.55E-09,  avg # of iterations =  2.0

     total cpu time spent up to now is        3.0 secs

     total energy              =     -25.40151658 Ry
     Harris-Foulkes estimate   =     -25.40151661 Ry
     estimated scf accuracy    <       0.00000007 Ry

     iteration #  3     ecut=    25.00 Ry     beta= 0.70
     Davidson diagonalization with overlap
     ethr =  6.86E-10,  avg # of iterations =  1.0

     total cpu time spent up to now is        3.1 secs

     total energy              =     -25.40151658 Ry
     Harris-Foulkes estimate   =     -25.40151659 Ry
     estimated scf accuracy    <          7.7E-09 Ry

     iteration #  4     ecut=    25.00 Ry     beta= 0.70
     Davidson diagonalization with overlap
     ethr =  7.69E-11,  avg # of iterations =  1.8

     total cpu time spent up to now is        3.1 secs

     End of self-consistent calculation

          k = 0.0000 0.0000 0.1673 (   531 PWs)   bands (ev):

    -4.8461   8.1811  10.7721  10.7721  13.4935  17.1679  17.1679  18.1382
    18.8949

          k =-0.1560-0.2702 0.2788 (   522 PWs)   bands (ev):

    -3.3782   3.7741   8.4047  12.4946  12.4996  13.8151  15.6016  19.2104
    19.9027

          k = 0.3120 0.5405-0.0558 (   520 PWs)   bands (ev):

    -1.1982   0.3011   9.2393   9.8655  11.2994  14.5050  16.6312  17.3510
    22.3967

          k = 0.1560 0.2702 0.0558 (   525 PWs)   bands (ev):

    -4.1250   5.8694   9.4397  10.2749  12.4280  16.2907  17.4857  17.9064
    18.7298

          k =-0.3120 0.0000 0.3903 (   519 PWs)   bands (ev):

    -2.6550   4.4400   7.7129   8.1227   8.9342  15.8475  19.0291  19.9017
    20.3414

          k = 0.1560 0.8107 0.0558 (   510 PWs)   bands (ev):

     0.0189   1.4886   4.8522   6.2915  11.6875  16.1082  18.0823  21.7709
    22.7868

          k = 0.0000 0.5405 0.1673 (   521 PWs)   bands (ev):

    -1.9390   2.2518   6.9667   8.4705  12.3546  14.7531  18.4680  19.3526
    20.3226

          k = 0.6241 0.0000-0.2788 (   510 PWs)   bands (ev):

    -0.7537   3.6147   4.1510   7.4163   8.2538  15.1640  20.3966  21.3985
    24.1908

          k = 0.0000 0.0000 0.5019 (   522 PWs)   bands (ev):

    -2.6064   1.8921  11.1029  11.1029  13.1460  13.1460  14.2202  15.5704
    23.2768

          k = 0.4681 0.8107 0.1673 (   520 PWs)   bands (ev):

    -0.4069   0.8159   5.5696   9.1243  10.6497  15.7474  18.3154  20.9338
    21.9393

     the Fermi energy is    13.4362 ev

!    total energy              =     -25.40151658 Ry
     Harris-Foulkes estimate   =     -25.40151658 Ry
     estimated scf accuracy    <          1.3E-10 Ry

     The total energy is the sum of the following terms:

     one-electron contribution =      11.86225566 Ry
     hartree contribution      =       0.57698818 Ry
     xc contribution           =      -6.79306405 Ry
     ewald contribution        =     -31.04770543 Ry
     smearing contrib. (-TS)   =       0.00000906 Ry

     convergence has been achieved in   4 iterations

     Forces acting on atoms (cartesian axes, Ry/au):

     atom    1 type  1   force =     0.00000000    0.00000000   -0.00002553
     atom    2 type  1   force =     0.00000000    0.00000000    0.00002553

     Total force =     0.000036     Total SCF correction =     0.000000


     Computing stress (Cartesian axis) and pressure

          total   stress  (Ry/bohr**3)                   (kbar)     P=  499.90
   0.00339783   0.00000000   0.00000000        499.84      0.00      0.00
   0.00000000   0.00339783   0.00000000          0.00    499.84      0.00
   0.00000000   0.00000000   0.00339903          0.00      0.00    500.02


     bfgs converged in  10 scf cycles and   9 bfgs steps
     (criteria: energy <  1.0E-04 Ry, force <  1.0E-03Ry/Bohr, cell <  5.0E-01kbar)

     End of BFGS Geometry Optimization

     Final enthalpy =     -24.7530010967 Ry
Begin final coordinates
     new unit-cell volume =    190.79981 a.u.^3 (    28.27361 Ang^3 )
     density =      8.79791 g/cm^3

CELL_PARAMETERS (alat=  7.01033623)
   0.534112914   0.000000000   0.747211284
  -0.267056371   0.462555303   0.747211341
  -0.267056371  -0.462555303   0.747211341

ATOMIC_POSITIONS (crystal)
As       0.250005765   0.250005739   0.250005739
As      -0.250005765  -0.250005739  -0.250005739
End final coordinates



     Writing output data file pwscf.save/

     A final scf calculation at the relaxed structure.
     The G-vectors are recalculated for the final unit cell
     Results may differ from those at the preceding step.
 
     Parallelization info
     --------------------
     sticks:   dense  smooth     PW     G-vecs:    dense   smooth      PW
     Min          71      71     23                  804      804     158
     Max          72      72     24                  806      806     159
     Sum         287     287     93                 3221     3221     633
 


     bravais-lattice index     =            0
     lattice parameter (alat)  =       7.0103  a.u.
     unit-cell volume          =     190.7998 (a.u.)^3
     number of atoms/cell      =            2
     number of atomic types    =            1
     number of electrons       =        10.00
     number of Kohn-Sham states=            9
     kinetic-energy cutoff     =      25.0000  Ry
     charge density cutoff     =     100.0000  Ry
     convergence threshold     =      1.0E-09
     mixing beta               =       0.7000
     number of iterations used =            8  plain     mixing
     Exchange-correlation      = SLA PZ NOGX NOGC ( 1  1  0  0 0 0)

     celldm(1)=   7.010336  celldm(2)=   0.000000  celldm(3)=   0.000000
     celldm(4)=   0.000000  celldm(5)=   0.000000  celldm(6)=   0.000000

     crystal axes: (cart. coord. in units of alat)
               a(1) = (   0.534113   0.000000   0.747211 )  
               a(2) = (  -0.267056   0.462555   0.747211 )  
               a(3) = (  -0.267056  -0.462555   0.747211 )  

     reciprocal axes: (cart. coord. in units 2 pi/alat)
               b(1) = (  1.248176  0.000000  0.446103 )  
               b(2) = ( -0.624088  1.080952  0.446103 )  
               b(3) = ( -0.624088 -1.080952  0.446103 )  


     PseudoPot. # 1 for As read from file:
     /home/funashima/espresso/pseudo/As.pz-bhs.UPF
     MD5 check sum: 2c53d8691f3db84e0fbdf898b12bc293
     Pseudo is Norm-conserving, Zval =  5.0
     Generated by new atomic code, or converted to UPF format
     Using radial grid of  525 points,  2 beta functions with: 
                l(1) =   0
                l(2) =   1

     atomic species   valence    mass     pseudopotential
        As             5.00    74.90000     As( 1.00)

     12 Sym. Ops., with inversion, found



   Cartesian axes

     site n.     atom                  positions (alat units)
         1           As  tau(   1) = (   0.0000001   0.0000000   0.5604214  )
         2           As  tau(   2) = (  -0.0000001   0.0000000  -0.5604214  )

     number of k points=    10  Methfessel-Paxton smearing, width (Ry)=  0.0050
                       cart. coord. in units 2pi/alat
        k(    1) = (   0.0000000   0.0000000   0.1672887), wk =   0.0625000
        k(    2) = (  -0.1560219  -0.2702380   0.2788145), wk =   0.1875000
        k(    3) = (   0.3120439   0.5404759  -0.0557629), wk =   0.1875000
        k(    4) = (   0.1560220   0.2702380   0.0557629), wk =   0.1875000
        k(    5) = (  -0.3120439   0.0000000   0.3903403), wk =   0.1875000
        k(    6) = (   0.1560220   0.8107139   0.0557629), wk =   0.3750000
        k(    7) = (   0.0000000   0.5404759   0.1672887), wk =   0.3750000
        k(    8) = (   0.6240878   0.0000000  -0.2788145), wk =   0.1875000
        k(    9) = (   0.0000000   0.0000000   0.5018661), wk =   0.0625000
        k(   10) = (   0.4680659   0.8107139   0.1672886), wk =   0.1875000

     Dense  grid:     3221 G-vectors     FFT dimensions: (  24,  24,  24)

     Estimated max dynamical RAM per process >       1.07 MB

     Estimated total dynamical RAM >       4.27 MB

     Initial potential from superposition of free atoms

     starting charge    9.99960, renormalised to   10.00000
     Starting wfcs are    8 randomized atomic wfcs +    1 random wfcs

     total cpu time spent up to now is        3.2 secs

     Self-consistent Calculation

     iteration #  1     ecut=    25.00 Ry     beta= 0.70
     Davidson diagonalization with overlap
     ethr =  1.00E-06,  avg # of iterations = 10.7

     total cpu time spent up to now is        3.3 secs

     total energy              =     -25.39786365 Ry
     Harris-Foulkes estimate   =     -25.40003112 Ry
     estimated scf accuracy    <       0.01490732 Ry

     iteration #  2     ecut=    25.00 Ry     beta= 0.70
     Davidson diagonalization with overlap
     ethr =  1.49E-04,  avg # of iterations =  1.0

     total cpu time spent up to now is        3.3 secs

     total energy              =     -25.39784223 Ry
     Harris-Foulkes estimate   =     -25.39797683 Ry
     estimated scf accuracy    <       0.00110530 Ry

     iteration #  3     ecut=    25.00 Ry     beta= 0.70
     Davidson diagonalization with overlap
     ethr =  1.11E-05,  avg # of iterations =  1.0

     total cpu time spent up to now is        3.4 secs

     total energy              =     -25.39785232 Ry
     Harris-Foulkes estimate   =     -25.39785280 Ry
     estimated scf accuracy    <       0.00000170 Ry

     iteration #  4     ecut=    25.00 Ry     beta= 0.70
     Davidson diagonalization with overlap
     ethr =  1.70E-08,  avg # of iterations =  3.0

     total cpu time spent up to now is        3.4 secs

     total energy              =     -25.39785407 Ry
     Harris-Foulkes estimate   =     -25.39785413 Ry
     estimated scf accuracy    <       0.00000013 Ry

     iteration #  5     ecut=    25.00 Ry     beta= 0.70
     Davidson diagonalization with overlap
     ethr =  1.27E-09,  avg # of iterations =  1.3

     total cpu time spent up to now is        3.5 secs

     total energy              =     -25.39785408 Ry
     Harris-Foulkes estimate   =     -25.39785408 Ry
     estimated scf accuracy    <          5.0E-09 Ry

     iteration #  6     ecut=    25.00 Ry     beta= 0.70
     Davidson diagonalization with overlap
     ethr =  4.96E-11,  avg # of iterations =  2.0

     total cpu time spent up to now is        3.5 secs

     End of self-consistent calculation

          k = 0.0000 0.0000 0.1673 (   396 PWs)   bands (ev):

    -4.8415   8.1940  10.7721  10.7721  13.5173  17.1701  17.1701  18.1436
    18.8986

          k =-0.1560-0.2702 0.2788 (   397 PWs)   bands (ev):

    -3.3731   3.7836   8.4063  12.4956  12.5008  13.8201  15.6149  19.2148
    19.9070

          k = 0.3120 0.5405-0.0558 (   401 PWs)   bands (ev):

    -1.1925   0.3079   9.2414   9.8659  11.3046  14.5063  16.6392  17.3575
    22.4006

          k = 0.1560 0.2702 0.0558 (   396 PWs)   bands (ev):

    -4.1203   5.8812   9.4403  10.2794  12.4305  16.3064  17.4908  17.9082
    18.7352

          k =-0.3120 0.0000 0.3903 (   407 PWs)   bands (ev):

    -2.6500   4.4492   7.7150   8.1229   8.9379  15.8499  19.0313  19.9060
    20.3503

          k = 0.1560 0.8107 0.0558 (   402 PWs)   bands (ev):

     0.0252   1.4955   4.8533   6.2925  11.6907  16.1116  18.0850  21.7742
    22.7876

          k = 0.0000 0.5405 0.1673 (   405 PWs)   bands (ev):

    -1.9336   2.2602   6.9681   8.4725  12.3583  14.7563  18.4723  19.3595
    20.3261

          k = 0.6241 0.0000-0.2788 (   410 PWs)   bands (ev):

    -0.7483   3.6230   4.1519   7.4165   8.2564  15.1665  20.3980  21.4016
    24.1952

          k = 0.0000 0.0000 0.5019 (   407 PWs)   bands (ev):

    -2.6011   1.8994  11.1036  11.1036  13.1472  13.1472  14.2307  15.5784
    23.2830

          k = 0.4681 0.8107 0.1673 (   403 PWs)   bands (ev):

    -0.4008   0.8235   5.5709   9.1248  10.6549  15.7488  18.3234  20.9368
    21.9430

     the Fermi energy is    13.4600 ev

!    total energy              =     -25.39785408 Ry
     Harris-Foulkes estimate   =     -25.39785408 Ry
     estimated scf accuracy    <          3.6E-11 Ry

     The total energy is the sum of the following terms:

     one-electron contribution =      11.86639761 Ry
     hartree contribution      =       0.57607660 Ry
     xc contribution           =      -6.79263188 Ry
     ewald contribution        =     -31.04770547 Ry
     smearing contrib. (-TS)   =       0.00000906 Ry

     convergence has been achieved in   6 iterations

     Forces acting on atoms (cartesian axes, Ry/au):

     atom    1 type  1   force =     0.00000000    0.00000000   -0.00002504
     atom    2 type  1   force =     0.00000000    0.00000000    0.00002504

     Total force =     0.000035     Total SCF correction =     0.000000


     Computing stress (Cartesian axis) and pressure

          total   stress  (Ry/bohr**3)                   (kbar)     P=  501.85
   0.00341036   0.00000000   0.00000000        501.68      0.00      0.00
   0.00000000   0.00341036   0.00000000          0.00    501.68      0.00
   0.00000000   0.00000000   0.00341382          0.00      0.00    502.19


     Writing output data file pwscf.save/
 
     init_run     :      0.06s CPU      0.07s WALL (       2 calls)
     electrons    :      1.85s CPU      2.89s WALL (      11 calls)
     update_pot   :      0.15s CPU      0.16s WALL (       9 calls)
     forces       :      0.08s CPU      0.10s WALL (      11 calls)
     stress       :      0.13s CPU      0.13s WALL (      11 calls)

     Called by init_run:
     wfcinit      :      0.02s CPU      0.02s WALL (       2 calls)
     potinit      :      0.01s CPU      0.01s WALL (       2 calls)
     hinit0       :      0.03s CPU      0.03s WALL (       2 calls)

     Called by electrons:
     c_bands      :      1.57s CPU      2.42s WALL (      59 calls)
     sum_band     :      0.24s CPU      0.34s WALL (      59 calls)
     v_of_rho     :      0.03s CPU      0.03s WALL (      66 calls)
     mix_rho      :      0.01s CPU      0.02s WALL (      59 calls)

     Called by c_bands:
     init_us_2    :      0.04s CPU      0.03s WALL (    1420 calls)
     cegterg      :      1.53s CPU      2.35s WALL (     590 calls)

     Called by sum_band:

     Called by *egterg:
     h_psi        :      1.03s CPU      1.60s WALL (    2052 calls)
     g_psi        :      0.02s CPU      0.02s WALL (    1442 calls)
     cdiaghg      :      0.30s CPU      0.41s WALL (    1902 calls)

     Called by h_psi:
     h_psi:pot    :      1.03s CPU      1.60s WALL (    2052 calls)
     h_psi:calbec :      0.06s CPU      0.10s WALL (    2052 calls)
     vloc_psi     :      0.96s CPU      1.47s WALL (    2052 calls)
     add_vuspsi   :      0.02s CPU      0.02s WALL (    2052 calls)

     General routines
     calbec       :      0.07s CPU      0.13s WALL (    2602 calls)
     fft          :      0.01s CPU      0.02s WALL (     255 calls)
     ffts         :      0.00s CPU      0.00s WALL (      59 calls)
     fftw         :      1.04s CPU      1.63s WALL (   34682 calls)
 
     Parallel routines
     fft_scatt_xy :      0.15s CPU      0.17s WALL (   34996 calls)
     fft_scatt_yz :      0.42s CPU      0.98s WALL (   34996 calls)
 
     PWSCF        :      2.34s CPU      3.55s WALL

 
   This run was terminated on:  13:10: 0   3Jun2019            

=------------------------------------------------------------------------------=
   JOB DONE.
=------------------------------------------------------------------------------=
