
     Program PWSCF v.6.4.1 starts on 25Jun2019 at 14:35:39 

     This program is part of the open-source Quantum ESPRESSO suite
     for quantum simulation of materials; please cite
         "P. Giannozzi et al., J. Phys.:Condens. Matter 21 395502 (2009);
         "P. Giannozzi et al., J. Phys.:Condens. Matter 29 465901 (2017);
          URL http://www.quantum-espresso.org", 
     in publications or presentations arising from this work. More details at
     http://www.quantum-espresso.org/quote

     Parallel version (MPI), running on     1 processors

     MPI processes distributed on     1 nodes
     Waiting for input...
     Reading input from standard input

     Current dimensions of program PWSCF are:
     Max number of different atomic species (ntypx) = 10
     Max number of k-points (npk) =  40000
     Max angular momentum in pseudopotentials (lmaxx) =  3
               file Si.rel-pbe-n-kjpaw_psl.1.0.0.UPF: wavefunction(s)  3S 3P 3P renormalized

     Subspace diagonalization in iterative solution of the eigenvalue problem:
     a serial algorithm will be used

 
     G-vector sticks info
     --------------------
     sticks:   dense  smooth     PW     G-vecs:    dense   smooth      PW
     Sum         265     265     91                 2891     2891     609
 


     bravais-lattice index     =            2
     lattice parameter (alat)  =       6.7017  a.u.
     unit-cell volume          =      75.2477 (a.u.)^3
     number of atoms/cell      =            2
     number of atomic types    =            1
     number of electrons       =         8.00
     number of Kohn-Sham states=            8
     kinetic-energy cutoff     =      43.8015  Ry
     charge density cutoff     =     175.2061  Ry
     convergence threshold     =      1.0E-09
     mixing beta               =       0.6000
     number of iterations used =            8  plain     mixing
     Exchange-correlation      = SLA PW PBX PBC ( 1  4  3  4 0 0)
     nstep                     =           50

     Non magnetic calculation with spin-orbit


     celldm(1)=   6.701690  celldm(2)=   0.000000  celldm(3)=   0.000000
     celldm(4)=   0.000000  celldm(5)=   0.000000  celldm(6)=   0.000000

     crystal axes: (cart. coord. in units of alat)
               a(1) = (  -0.500000   0.000000   0.500000 )  
               a(2) = (   0.000000   0.500000   0.500000 )  
               a(3) = (  -0.500000   0.500000   0.000000 )  

     reciprocal axes: (cart. coord. in units 2 pi/alat)
               b(1) = ( -1.000000 -1.000000  1.000000 )  
               b(2) = (  1.000000  1.000000  1.000000 )  
               b(3) = ( -1.000000  1.000000 -1.000000 )  


     PseudoPot. # 1 for Si read from file:
     ./pseudo/Si.rel-pbe-n-kjpaw_psl.1.0.0.UPF
     MD5 check sum: 516c7a399c3fb0aecfa3742bc839efd8
     Pseudo is Projector augmented-wave + core cor, Zval =  4.0
     Generated using "atomic" code by A. Dal Corso v.6.4.1
     Shape of augmentation charge: PSQ
     Using radial grid of 1141 points, 10 beta functions with: 
                l(1) =   0
                l(2) =   0
                l(3) =   1
                l(4) =   1
                l(5) =   1
                l(6) =   1
                l(7) =   2
                l(8) =   2
                l(9) =   2
               l(10) =   2
     Q(r) pseudized with 0 coefficients 


     atomic species   valence    mass     pseudopotential
        Si             4.00    28.08550     Si( 1.00)

     48 Sym. Ops., with inversion, found (24 have fractional translation)



   Cartesian axes

     site n.     atom                  positions (alat units)
         1           Si  tau(   1) = (   0.0000000   0.0000000   0.0000000  )
         2           Si  tau(   2) = (  -0.2500000   0.2500000   0.2500000  )

     number of k points=    16  Methfessel-Paxton smearing, width (Ry)=  0.0200
                       cart. coord. in units 2pi/alat
        k(    1) = (   0.0000000   0.0000000   0.0000000), wk =   0.0046296
        k(    2) = (  -0.1666667   0.1666667  -0.1666667), wk =   0.0370370
        k(    3) = (  -0.3333333   0.3333333  -0.3333333), wk =   0.0370370
        k(    4) = (   0.5000000  -0.5000000   0.5000000), wk =   0.0185185
        k(    5) = (   0.0000000   0.3333333   0.0000000), wk =   0.0277778
        k(    6) = (  -0.1666667   0.5000000  -0.1666667), wk =   0.1111111
        k(    7) = (   0.6666667  -0.3333333   0.6666667), wk =   0.1111111
        k(    8) = (   0.5000000  -0.1666667   0.5000000), wk =   0.1111111
        k(    9) = (   0.3333333   0.0000000   0.3333333), wk =   0.0555556
        k(   10) = (   0.0000000   0.6666667   0.0000000), wk =   0.0277778
        k(   11) = (   0.8333333  -0.1666667   0.8333333), wk =   0.1111111
        k(   12) = (   0.6666667   0.0000000   0.6666667), wk =   0.0555556
        k(   13) = (   0.0000000  -1.0000000   0.0000000), wk =   0.0138889
        k(   14) = (   0.6666667  -0.3333333   1.0000000), wk =   0.1111111
        k(   15) = (   0.5000000  -0.1666667   0.8333333), wk =   0.1111111
        k(   16) = (  -0.3333333  -1.0000000   0.0000000), wk =   0.0555556

     Dense  grid:     2891 G-vectors     FFT dimensions: (  20,  20,  20)

     Smooth grid:     2891 G-vectors     FFT dimensions: (  20,  20,  20)

     Estimated max dynamical RAM per process >      40.87 MB

     Initial potential from superposition of free atoms

     starting charge    7.99890, renormalised to    8.00000
     Starting wfcs are   16 randomized atomic wfcs
     Checking if some PAW data can be deallocated... 

     total cpu time spent up to now is        2.4 secs

     Self-consistent Calculation

     iteration #  1     ecut=    43.80 Ry     beta= 0.60
     Davidson diagonalization with overlap
     ethr =  1.00E-02,  avg # of iterations =  2.8

     Threshold (ethr) on eigenvalues was too large:
     Diagonalizing with lowered threshold

     Davidson diagonalization with overlap
     ethr =  9.96E-04,  avg # of iterations =  2.6

     total cpu time spent up to now is        3.4 secs

     total energy              =     -90.27100684 Ry
     Harris-Foulkes estimate   =     -90.32719769 Ry
     estimated scf accuracy    <       0.06989775 Ry

     iteration #  2     ecut=    43.80 Ry     beta= 0.60
     Davidson diagonalization with overlap
     ethr =  8.74E-04,  avg # of iterations =  2.6

     total cpu time spent up to now is        4.2 secs

     total energy              =     -90.28632476 Ry
     Harris-Foulkes estimate   =     -90.28494326 Ry
     estimated scf accuracy    <       0.00395565 Ry

     iteration #  3     ecut=    43.80 Ry     beta= 0.60
     Davidson diagonalization with overlap
     ethr =  4.94E-05,  avg # of iterations =  3.4

     total cpu time spent up to now is        4.9 secs

     total energy              =     -90.28873394 Ry
     Harris-Foulkes estimate   =     -90.28828385 Ry
     estimated scf accuracy    <       0.00056499 Ry

     iteration #  4     ecut=    43.80 Ry     beta= 0.60
     Davidson diagonalization with overlap
     ethr =  7.06E-06,  avg # of iterations =  2.2

     total cpu time spent up to now is        5.6 secs

     total energy              =     -90.28881972 Ry
     Harris-Foulkes estimate   =     -90.28882562 Ry
     estimated scf accuracy    <       0.00000635 Ry

     iteration #  5     ecut=    43.80 Ry     beta= 0.60
     Davidson diagonalization with overlap
     ethr =  7.93E-08,  avg # of iterations =  4.2

     total cpu time spent up to now is        6.3 secs

     total energy              =     -90.28882363 Ry
     Harris-Foulkes estimate   =     -90.28882446 Ry
     estimated scf accuracy    <       0.00000004 Ry

     iteration #  6     ecut=    43.80 Ry     beta= 0.60
     Davidson diagonalization with overlap
     c_bands:  1 eigenvalues not converged
     ethr =  4.67E-10,  avg # of iterations =  5.4

     total cpu time spent up to now is        7.1 secs

     total energy              =     -90.28883685 Ry
     Harris-Foulkes estimate   =     -90.28883651 Ry
     estimated scf accuracy    <       0.00000882 Ry

     iteration #  7     ecut=    43.80 Ry     beta= 0.60
     Davidson diagonalization with overlap
     c_bands:  2 eigenvalues not converged
     ethr =  4.67E-10,  avg # of iterations =  2.3

     total cpu time spent up to now is        7.8 secs

     total energy              =     -90.28886165 Ry
     Harris-Foulkes estimate   =     -90.28886329 Ry
     estimated scf accuracy    <       0.00003563 Ry

     iteration #  8     ecut=    43.80 Ry     beta= 0.60
     Davidson diagonalization with overlap
     ethr =  4.67E-10,  avg # of iterations =  3.6

     total cpu time spent up to now is        8.5 secs

     total energy              =     -90.28886140 Ry
     Harris-Foulkes estimate   =     -90.28886264 Ry
     estimated scf accuracy    <       0.00003295 Ry

     iteration #  9     ecut=    43.80 Ry     beta= 0.60
     Davidson diagonalization with overlap
     ethr =  4.67E-10,  avg # of iterations =  2.6

     total cpu time spent up to now is        9.2 secs

     total energy              =     -90.28886020 Ry
     Harris-Foulkes estimate   =     -90.28886140 Ry
     estimated scf accuracy    <       0.00003018 Ry

     iteration # 10     ecut=    43.80 Ry     beta= 0.60
     Davidson diagonalization with overlap
     ethr =  4.67E-10,  avg # of iterations =  2.8

     total cpu time spent up to now is        9.9 secs

     total energy              =     -90.28885418 Ry
     Harris-Foulkes estimate   =     -90.28886021 Ry
     estimated scf accuracy    <       0.00002773 Ry

     iteration # 11     ecut=    43.80 Ry     beta= 0.60
     Davidson diagonalization with overlap
     ethr =  4.67E-10,  avg # of iterations =  4.8

     total cpu time spent up to now is       10.7 secs

     total energy              =     -90.28885016 Ry
     Harris-Foulkes estimate   =     -90.28885444 Ry
     estimated scf accuracy    <       0.00001571 Ry

     iteration # 12     ecut=    43.80 Ry     beta= 0.60
     Davidson diagonalization with overlap
     ethr =  4.67E-10,  avg # of iterations =  4.8

     total cpu time spent up to now is       11.5 secs

     total energy              =     -90.28884612 Ry
     Harris-Foulkes estimate   =     -90.28885042 Ry
     estimated scf accuracy    <       0.00000732 Ry

     iteration # 13     ecut=    43.80 Ry     beta= 0.60
     Davidson diagonalization with overlap
     ethr =  4.67E-10,  avg # of iterations =  5.3

     total cpu time spent up to now is       12.4 secs

     total energy              =     -90.28884692 Ry
     Harris-Foulkes estimate   =     -90.28884695 Ry
     estimated scf accuracy    <       0.00000019 Ry

     iteration # 14     ecut=    43.80 Ry     beta= 0.60
     Davidson diagonalization with overlap
     ethr =  4.67E-10,  avg # of iterations =  1.0

     total cpu time spent up to now is       13.0 secs

     total energy              =     -90.28884680 Ry
     Harris-Foulkes estimate   =     -90.28884692 Ry
     estimated scf accuracy    <       0.00000015 Ry

     iteration # 15     ecut=    43.80 Ry     beta= 0.60
     Davidson diagonalization with overlap
     ethr =  4.67E-10,  avg # of iterations =  4.3

     total cpu time spent up to now is       13.8 secs

     total energy              =     -90.28884683 Ry
     Harris-Foulkes estimate   =     -90.28884688 Ry
     estimated scf accuracy    <       0.00000009 Ry

     iteration # 16     ecut=    43.80 Ry     beta= 0.60
     Davidson diagonalization with overlap
     ethr =  4.67E-10,  avg # of iterations =  2.7

     total cpu time spent up to now is       14.5 secs

     End of self-consistent calculation

          k = 0.0000 0.0000 0.0000 (   339 PWs)   bands (ev):

     4.2165   4.2165  30.5306  30.5306  30.6297  30.6297  30.6297  30.6297

          k =-0.1667 0.1667-0.1667 (   362 PWs)   bands (ev):

     5.1553   5.1553  25.0202  25.0202  29.3236  29.3236  29.3879  29.3879

          k =-0.3333 0.3333-0.3333 (   359 PWs)   bands (ev):

     7.9132   7.9132  18.2311  18.2311  28.7412  28.7412  28.8039  28.8039

          k = 0.5000-0.5000 0.5000 (   368 PWs)   bands (ev):

    12.0009  12.0009  12.7176  12.7176  29.4040  29.4040  29.4971  29.4971

          k = 0.0000 0.3333 0.0000 (   355 PWs)   bands (ev):

     5.4656   5.4656  26.9433  26.9433  26.9557  26.9557  29.1952  29.1952

          k =-0.1667 0.5000-0.1667 (   366 PWs)   bands (ev):

     7.6089   7.6089  21.1107  21.1107  25.8548  25.8548  26.9870  26.9870

          k = 0.6667-0.3333 0.6667 (   368 PWs)   bands (ev):

    11.4401  11.4401  14.9595  14.9595  24.3500  24.3500  26.0892  26.0892

          k = 0.5000-0.1667 0.5000 (   365 PWs)   bands (ev):

     9.9953   9.9953  16.8787  16.8787  23.1211  23.1211  27.6434  27.6434

          k = 0.3333 0.0000 0.3333 (   369 PWs)   bands (ev):

     6.6976   6.6976  23.2647  23.2647  23.4528  23.4528  30.3765  30.3765

          k = 0.0000 0.6667 0.0000 (   355 PWs)   bands (ev):

     9.1036   9.1036  22.2800  22.2800  24.3118  24.3118  24.3153  24.3153

          k = 0.8333-0.1667 0.8333 (   368 PWs)   bands (ev):

    12.3052  12.3052  18.5613  18.5613  19.4783  19.4783  24.1001  24.1001

          k = 0.6667 0.0000 0.6667 (   375 PWs)   bands (ev):

    13.6924  13.6924  17.0579  17.0579  17.2792  17.2792  25.2041  25.2041

          k = 0.0000-1.0000 0.0000 (   360 PWs)   bands (ev):

    14.8382  14.8382  14.8382  14.8382  23.4452  23.4452  23.4452  23.4452

          k = 0.6667-0.3333 1.0000 (   367 PWs)   bands (ev):

    10.2863  10.2863  20.2127  20.2127  20.4326  20.4326  23.4698  23.4698

          k = 0.5000-0.1667 0.8333 (   370 PWs)   bands (ev):

    14.1861  14.1861  15.0493  15.0493  20.7540  20.7540  21.5474  21.5474

          k =-0.3333-1.0000 0.0000 (   374 PWs)   bands (ev):

    15.8950  15.8950  15.9034  15.9034  19.4317  19.4317  19.4459  19.4459

     the Fermi energy is    30.7367 ev

!    total energy              =     -90.28884684 Ry
     Harris-Foulkes estimate   =     -90.28884684 Ry
     estimated scf accuracy    <          1.2E-10 Ry

     total all-electron energy =     -1156.970905 Ry

     The total energy is the sum of the following terms:

     one-electron contribution =      21.63648727 Ry
     hartree contribution      =       0.13290231 Ry
     xc contribution           =     -14.59394274 Ry
     ewald contribution        =     -25.72150277 Ry
     one-center paw contrib.   =     -71.74289827 Ry
     smearing contrib. (-TS)   =       0.00010736 Ry

     convergence has been achieved in  16 iterations

     Forces acting on atoms (cartesian axes, Ry/au):

     atom    1 type  1   force =     0.00000000    0.00000000    0.00000000
     atom    2 type  1   force =     0.00000000    0.00000000    0.00000000

     Total force =     0.000000     Total SCF correction =     0.000000


     Computing stress (Cartesian axis) and pressure

     Message from routine stres:
     noncollinear stress + GGA not implemented

     BFGS Geometry Optimization

     bfgs converged in   1 scf cycles and   0 bfgs steps
     (criteria: energy <  1.0E-04 Ry, force <  1.0E-03Ry/Bohr, cell <  5.0E-01kbar)

     End of BFGS Geometry Optimization

     Final enthalpy =     -90.2888468449 Ry
Begin final coordinates
     new unit-cell volume =     75.24766 a.u.^3 (    11.15055 Ang^3 )
     density =      8.36498 g/cm^3

CELL_PARAMETERS (alat=  6.70169000)
  -0.500000000   0.000000000   0.500000000
   0.000000000   0.500000000   0.500000000
  -0.500000000   0.500000000   0.000000000

ATOMIC_POSITIONS (crystal)
Si       0.000000000   0.000000000   0.000000000
Si       0.250000000   0.250000000   0.250000000
End final coordinates



     Writing output data file pwscf.save/

     A final scf calculation at the relaxed structure.
     The G-vectors are recalculated for the final unit cell
     Results may differ from those at the preceding step.
 
     G-vector sticks info
     --------------------
     sticks:   dense  smooth     PW     G-vecs:    dense   smooth      PW
     Sum         265     265     91                 2891     2891     609
 


     bravais-lattice index     =            2
     lattice parameter (alat)  =       6.7017  a.u.
     unit-cell volume          =      75.2477 (a.u.)^3
     number of atoms/cell      =            2
     number of atomic types    =            1
     number of electrons       =         8.00
     number of Kohn-Sham states=            8
     kinetic-energy cutoff     =      43.8015  Ry
     charge density cutoff     =     175.2061  Ry
     convergence threshold     =      1.0E-09
     mixing beta               =       0.6000
     number of iterations used =            8  plain     mixing
     Exchange-correlation      = SLA PW PBX PBC ( 1  4  3  4 0 0)
     Non magnetic calculation with spin-orbit


     celldm(1)=   6.701690  celldm(2)=   0.000000  celldm(3)=   0.000000
     celldm(4)=   0.000000  celldm(5)=   0.000000  celldm(6)=   0.000000

     crystal axes: (cart. coord. in units of alat)
               a(1) = (  -0.500000   0.000000   0.500000 )  
               a(2) = (   0.000000   0.500000   0.500000 )  
               a(3) = (  -0.500000   0.500000   0.000000 )  

     reciprocal axes: (cart. coord. in units 2 pi/alat)
               b(1) = ( -1.000000 -1.000000  1.000000 )  
               b(2) = (  1.000000  1.000000  1.000000 )  
               b(3) = ( -1.000000  1.000000 -1.000000 )  


     PseudoPot. # 1 for Si read from file:
     ./pseudo/Si.rel-pbe-n-kjpaw_psl.1.0.0.UPF
     MD5 check sum: 516c7a399c3fb0aecfa3742bc839efd8
     Pseudo is Projector augmented-wave + core cor, Zval =  4.0
     Generated using "atomic" code by A. Dal Corso v.6.4.1
     Shape of augmentation charge: PSQ
     Using radial grid of 1141 points, 10 beta functions with: 
                l(1) =   0
                l(2) =   0
                l(3) =   1
                l(4) =   1
                l(5) =   1
                l(6) =   1
                l(7) =   2
                l(8) =   2
                l(9) =   2
               l(10) =   2
     Q(r) pseudized with 0 coefficients 


     atomic species   valence    mass     pseudopotential
        Si             4.00    28.08550     Si( 1.00)

     48 Sym. Ops., with inversion, found (24 have fractional translation)



   Cartesian axes

     site n.     atom                  positions (alat units)
         1           Si  tau(   1) = (   0.0000000   0.0000000   0.0000000  )
         2           Si  tau(   2) = (  -0.2500000   0.2500000   0.2500000  )

     number of k points=    16  Methfessel-Paxton smearing, width (Ry)=  0.0200
                       cart. coord. in units 2pi/alat
        k(    1) = (   0.0000000   0.0000000   0.0000000), wk =   0.0046296
        k(    2) = (  -0.1666667   0.1666667  -0.1666667), wk =   0.0370370
        k(    3) = (  -0.3333333   0.3333333  -0.3333333), wk =   0.0370370
        k(    4) = (   0.5000000  -0.5000000   0.5000000), wk =   0.0185185
        k(    5) = (   0.0000000   0.3333333   0.0000000), wk =   0.0277778
        k(    6) = (  -0.1666667   0.5000000  -0.1666667), wk =   0.1111111
        k(    7) = (   0.6666667  -0.3333333   0.6666667), wk =   0.1111111
        k(    8) = (   0.5000000  -0.1666667   0.5000000), wk =   0.1111111
        k(    9) = (   0.3333333   0.0000000   0.3333333), wk =   0.0555556
        k(   10) = (   0.0000000   0.6666667   0.0000000), wk =   0.0277778
        k(   11) = (   0.8333333  -0.1666667   0.8333333), wk =   0.1111111
        k(   12) = (   0.6666667   0.0000000   0.6666667), wk =   0.0555556
        k(   13) = (   0.0000000  -1.0000000   0.0000000), wk =   0.0138889
        k(   14) = (   0.6666667  -0.3333333   1.0000000), wk =   0.1111111
        k(   15) = (   0.5000000  -0.1666667   0.8333333), wk =   0.1111111
        k(   16) = (  -0.3333333  -1.0000000   0.0000000), wk =   0.0555556

     Dense  grid:     2891 G-vectors     FFT dimensions: (  20,  20,  20)

     Smooth grid:     2891 G-vectors     FFT dimensions: (  20,  20,  20)

     Estimated max dynamical RAM per process >      40.89 MB

     Initial potential from superposition of free atoms

     starting charge    7.99890, renormalised to    8.00000
     Starting wfcs are   16 randomized atomic wfcs
     Checking if some PAW data can be deallocated... 

     total cpu time spent up to now is       16.1 secs

     Self-consistent Calculation

     iteration #  1     ecut=    43.80 Ry     beta= 0.60
     Davidson diagonalization with overlap
     ethr =  1.00E-06,  avg # of iterations = 10.9

     total cpu time spent up to now is       17.1 secs

     total energy              =     -90.27506023 Ry
     Harris-Foulkes estimate   =     -90.31966500 Ry
     estimated scf accuracy    <       0.06643635 Ry

     iteration #  2     ecut=    43.80 Ry     beta= 0.60
     Davidson diagonalization with overlap
     ethr =  8.30E-04,  avg # of iterations =  2.2

     total cpu time spent up to now is       17.8 secs

     total energy              =     -90.28652879 Ry
     Harris-Foulkes estimate   =     -90.28491165 Ry
     estimated scf accuracy    <       0.00438615 Ry

     iteration #  3     ecut=    43.80 Ry     beta= 0.60
     Davidson diagonalization with overlap
     ethr =  5.48E-05,  avg # of iterations =  3.2

     total cpu time spent up to now is       18.5 secs

     total energy              =     -90.28873705 Ry
     Harris-Foulkes estimate   =     -90.28848506 Ry
     estimated scf accuracy    <       0.00060914 Ry

     iteration #  4     ecut=    43.80 Ry     beta= 0.60
     Davidson diagonalization with overlap
     ethr =  7.61E-06,  avg # of iterations =  2.0

     total cpu time spent up to now is       19.2 secs

     total energy              =     -90.28880801 Ry
     Harris-Foulkes estimate   =     -90.28886209 Ry
     estimated scf accuracy    <       0.00009426 Ry

     iteration #  5     ecut=    43.80 Ry     beta= 0.60
     Davidson diagonalization with overlap
     ethr =  1.18E-06,  avg # of iterations =  2.3

     total cpu time spent up to now is       19.9 secs

     total energy              =     -90.28882278 Ry
     Harris-Foulkes estimate   =     -90.28882413 Ry
     estimated scf accuracy    <       0.00000028 Ry

     iteration #  6     ecut=    43.80 Ry     beta= 0.60
     Davidson diagonalization with overlap
     c_bands:  2 eigenvalues not converged
     ethr =  3.47E-09,  avg # of iterations =  5.6

     total cpu time spent up to now is       20.7 secs

     total energy              =     -90.28884450 Ry
     Harris-Foulkes estimate   =     -90.28884595 Ry
     estimated scf accuracy    <       0.00003569 Ry

     iteration #  7     ecut=    43.80 Ry     beta= 0.60
     Davidson diagonalization with overlap
     c_bands:  1 eigenvalues not converged
     ethr =  3.47E-09,  avg # of iterations =  2.2

     total cpu time spent up to now is       21.3 secs

     total energy              =     -90.28884202 Ry
     Harris-Foulkes estimate   =     -90.28886298 Ry
     estimated scf accuracy    <       0.00003296 Ry

     iteration #  8     ecut=    43.80 Ry     beta= 0.60
     Davidson diagonalization with overlap
     ethr =  3.47E-09,  avg # of iterations =  5.1

     total cpu time spent up to now is       22.2 secs

     total energy              =     -90.28884941 Ry
     Harris-Foulkes estimate   =     -90.28884691 Ry
     estimated scf accuracy    <       0.00000005 Ry

     iteration #  9     ecut=    43.80 Ry     beta= 0.60
     Davidson diagonalization with overlap
     ethr =  5.91E-10,  avg # of iterations =  5.7

     total cpu time spent up to now is       23.0 secs

     total energy              =     -90.28884612 Ry
     Harris-Foulkes estimate   =     -90.28885118 Ry
     estimated scf accuracy    <       0.00000972 Ry

     iteration # 10     ecut=    43.80 Ry     beta= 0.60
     Davidson diagonalization with overlap
     ethr =  5.91E-10,  avg # of iterations =  5.2

     total cpu time spent up to now is       23.8 secs

     total energy              =     -90.28884680 Ry
     Harris-Foulkes estimate   =     -90.28884703 Ry
     estimated scf accuracy    <       0.00000044 Ry

     iteration # 11     ecut=    43.80 Ry     beta= 0.60
     Davidson diagonalization with overlap
     ethr =  5.91E-10,  avg # of iterations =  3.9

     total cpu time spent up to now is       24.6 secs

     total energy              =     -90.28884684 Ry
     Harris-Foulkes estimate   =     -90.28884685 Ry
     estimated scf accuracy    <       0.00000001 Ry

     iteration # 12     ecut=    43.80 Ry     beta= 0.60
     Davidson diagonalization with overlap
     ethr =  1.34E-10,  avg # of iterations =  2.8

     total cpu time spent up to now is       25.3 secs

     End of self-consistent calculation

          k = 0.0000 0.0000 0.0000 (   339 PWs)   bands (ev):

     4.2165   4.2165  30.5306  30.5306  30.6298  30.6298  30.6298  30.6298

          k =-0.1667 0.1667-0.1667 (   362 PWs)   bands (ev):

     5.1553   5.1553  25.0202  25.0202  29.3237  29.3237  29.3879  29.3879

          k =-0.3333 0.3333-0.3333 (   359 PWs)   bands (ev):

     7.9132   7.9132  18.2311  18.2311  28.7413  28.7413  28.8039  28.8039

          k = 0.5000-0.5000 0.5000 (   368 PWs)   bands (ev):

    12.0009  12.0009  12.7177  12.7177  29.4041  29.4041  29.4971  29.4971

          k = 0.0000 0.3333 0.0000 (   355 PWs)   bands (ev):

     5.4656   5.4656  26.9433  26.9433  26.9557  26.9557  29.1952  29.1952

          k =-0.1667 0.5000-0.1667 (   366 PWs)   bands (ev):

     7.6089   7.6089  21.1107  21.1107  25.8548  25.8548  26.9870  26.9870

          k = 0.6667-0.3333 0.6667 (   368 PWs)   bands (ev):

    11.4401  11.4401  14.9595  14.9595  24.3500  24.3500  26.0892  26.0892

          k = 0.5000-0.1667 0.5000 (   365 PWs)   bands (ev):

     9.9953   9.9953  16.8788  16.8788  23.1211  23.1211  27.6435  27.6435

          k = 0.3333 0.0000 0.3333 (   369 PWs)   bands (ev):

     6.6976   6.6976  23.2647  23.2647  23.4529  23.4529  30.3765  30.3765

          k = 0.0000 0.6667 0.0000 (   355 PWs)   bands (ev):

     9.1036   9.1036  22.2800  22.2800  24.3118  24.3118  24.3154  24.3154

          k = 0.8333-0.1667 0.8333 (   368 PWs)   bands (ev):

    12.3052  12.3052  18.5613  18.5613  19.4784  19.4784  24.1001  24.1001

          k = 0.6667 0.0000 0.6667 (   375 PWs)   bands (ev):

    13.6924  13.6924  17.0580  17.0580  17.2792  17.2792  25.2041  25.2041

          k = 0.0000-1.0000 0.0000 (   360 PWs)   bands (ev):

    14.8382  14.8382  14.8382  14.8382  23.4452  23.4452  23.4452  23.4452

          k = 0.6667-0.3333 1.0000 (   367 PWs)   bands (ev):

    10.2863  10.2863  20.2127  20.2127  20.4327  20.4327  23.4698  23.4698

          k = 0.5000-0.1667 0.8333 (   370 PWs)   bands (ev):

    14.1861  14.1861  15.0493  15.0493  20.7540  20.7540  21.5474  21.5474

          k =-0.3333-1.0000 0.0000 (   374 PWs)   bands (ev):

    15.8950  15.8950  15.9034  15.9034  19.4317  19.4317  19.4459  19.4459

     the Fermi energy is    30.7368 ev

!    total energy              =     -90.28884685 Ry
     Harris-Foulkes estimate   =     -90.28884685 Ry
     estimated scf accuracy    <          2.6E-10 Ry

     total all-electron energy =     -1156.970905 Ry

     The total energy is the sum of the following terms:

     one-electron contribution =      21.63647789 Ry
     hartree contribution      =       0.13289674 Ry
     xc contribution           =     -14.59393635 Ry
     ewald contribution        =     -25.72150277 Ry
     one-center paw contrib.   =     -71.74288970 Ry
     smearing contrib. (-TS)   =       0.00010736 Ry

     convergence has been achieved in  12 iterations

     Forces acting on atoms (cartesian axes, Ry/au):

     atom    1 type  1   force =     0.00000000    0.00000000    0.00000000
     atom    2 type  1   force =     0.00000000    0.00000000    0.00000000

     Total force =     0.000000     Total SCF correction =     0.000000


     Computing stress (Cartesian axis) and pressure

     Message from routine stres:
     noncollinear stress + GGA not implemented

     Writing output data file pwscf.save/
 
     init_run     :      2.73s CPU      2.74s WALL (       2 calls)
     electrons    :     21.22s CPU     21.40s WALL (       2 calls)
     forces       :      0.22s CPU      0.23s WALL (       2 calls)

     Called by init_run:
     wfcinit      :      0.20s CPU      0.20s WALL (       2 calls)
     potinit      :      0.71s CPU      0.71s WALL (       2 calls)
     hinit0       :      1.74s CPU      1.75s WALL (       2 calls)

     Called by electrons:
     c_bands      :      8.83s CPU      8.87s WALL (      29 calls)
     sum_band     :      2.05s CPU      2.06s WALL (      29 calls)
     v_of_rho     :      0.08s CPU      0.08s WALL (      30 calls)
     newd         :      1.00s CPU      1.01s WALL (      30 calls)
     PAW_pot      :      9.83s CPU      9.84s WALL (      30 calls)
     mix_rho      :      0.07s CPU      0.12s WALL (      29 calls)

     Called by c_bands:
     init_us_2    :      0.18s CPU      0.18s WALL (     992 calls)
     cegterg      :      5.63s CPU      5.67s WALL (     464 calls)

     Called by sum_band:
     sum_band:bec :      0.75s CPU      0.75s WALL (     464 calls)
     addusdens    :      0.50s CPU      0.51s WALL (      29 calls)

     Called by *egterg:
     h_psi        :      4.51s CPU      4.53s WALL (    2235 calls)
     s_psi        :      0.43s CPU      0.43s WALL (    2235 calls)
     g_psi        :      0.12s CPU      0.10s WALL (    1739 calls)
     cdiaghg      :      0.25s CPU      0.24s WALL (    2187 calls)

     Called by h_psi:
     h_psi:pot    :      4.50s CPU      4.52s WALL (    2235 calls)
     h_psi:calbec :      0.32s CPU      0.32s WALL (    2235 calls)
     vloc_psi     :      3.76s CPU      3.77s WALL (    2235 calls)
     add_vuspsi   :      0.41s CPU      0.42s WALL (    2235 calls)

     General routines
     calbec       :      0.42s CPU      0.42s WALL (    2827 calls)
     fft          :      0.05s CPU      0.03s WALL (     557 calls)
     ffts         :      0.01s CPU      0.01s WALL (     236 calls)
     fftw         :      3.69s CPU      3.69s WALL (   65992 calls)
     interpolate  :      0.02s CPU      0.02s WALL (     120 calls)
 
     Parallel routines
 
     PWSCF        :     25.11s CPU     25.57s WALL

 
   This run was terminated on:  14:36: 5  25Jun2019            

=------------------------------------------------------------------------------=
   JOB DONE.
=------------------------------------------------------------------------------=
